# vtk DataFile Version 1.0
2D Simulation C++
ASCII
DATASET UNSTRUCTURED_GRID
FIELD FieldData 1
NODES 1 2 int
715 1308

POINTS 715 double
0.0 0.0 0.0
5.0 0.0 0.0
5.0 1.0 0.0
0.0 1.0 0.0
0.10000000149011612 1.0 0.0
0.20000000298023224 1.0 0.0
0.30000001192092896 1.0 0.0
0.4000000059604645 1.0 0.0
0.5 1.0 0.0
0.6000000238418579 1.0 0.0
0.699999988079071 1.0 0.0
0.800000011920929 1.0 0.0
0.8999999761581421 1.0 0.0
1.0 1.0 0.0
1.100000023841858 1.0 0.0
1.2000000476837158 1.0 0.0
1.2999999523162842 1.0 0.0
1.399999976158142 1.0 0.0
1.5 1.0 0.0
1.600000023841858 1.0 0.0
1.7000000476837158 1.0 0.0
1.7999999523162842 1.0 0.0
1.899999976158142 1.0 0.0
2.0 1.0 0.0
2.0999999046325684 1.0 0.0
2.200000047683716 1.0 0.0
2.299999952316284 1.0 0.0
2.4000000953674316 1.0 0.0
2.5 1.0 0.0
2.5999999046325684 1.0 0.0
2.700000047683716 1.0 0.0
2.799999952316284 1.0 0.0
2.9000000953674316 1.0 0.0
3.0 1.0 0.0
3.0999999046325684 1.0 0.0
3.200000047683716 1.0 0.0
3.299999952316284 1.0 0.0
3.4000000953674316 1.0 0.0
3.5 1.0 0.0
3.5999999046325684 1.0 0.0
3.700000047683716 1.0 0.0
3.799999952316284 1.0 0.0
3.9000000953674316 1.0 0.0
4.0 1.0 0.0
4.099999904632568 1.0 0.0
4.199999809265137 1.0 0.0
4.300000190734863 1.0 0.0
4.400000095367432 1.0 0.0
4.5 1.0 0.0
4.599999904632568 1.0 0.0
4.699999809265137 1.0 0.0
4.800000190734863 1.0 0.0
4.900000095367432 1.0 0.0
5.0 0.8999999761581421 0.0
5.0 0.800000011920929 0.0
5.0 0.699999988079071 0.0
5.0 0.6000000238418579 0.0
5.0 0.5 0.0
5.0 0.4000000059604645 0.0
5.0 0.30000001192092896 0.0
5.0 0.20000000298023224 0.0
5.0 0.10000000149011612 0.0
4.900000095367432 0.0 0.0
4.800000190734863 0.0 0.0
4.699999809265137 0.0 0.0
4.599999904632568 0.0 0.0
4.5 0.0 0.0
4.400000095367432 0.0 0.0
4.300000190734863 0.0 0.0
4.199999809265137 0.0 0.0
4.099999904632568 0.0 0.0
4.0 0.0 0.0
3.9000000953674316 0.0 0.0
3.799999952316284 0.0 0.0
3.700000047683716 0.0 0.0
3.5999999046325684 0.0 0.0
3.5 0.0 0.0
3.4000000953674316 0.0 0.0
3.299999952316284 0.0 0.0
3.200000047683716 0.0 0.0
3.0999999046325684 0.0 0.0
3.0 0.0 0.0
2.9000000953674316 0.0 0.0
2.799999952316284 0.0 0.0
2.700000047683716 0.0 0.0
2.5999999046325684 0.0 0.0
2.5 0.0 0.0
2.4000000953674316 0.0 0.0
2.299999952316284 0.0 0.0
2.200000047683716 0.0 0.0
2.0999999046325684 0.0 0.0
2.0 0.0 0.0
1.899999976158142 0.0 0.0
1.7999999523162842 0.0 0.0
1.7000000476837158 0.0 0.0
1.600000023841858 0.0 0.0
1.5 0.0 0.0
1.399999976158142 0.0 0.0
1.2999999523162842 0.0 0.0
1.2000000476837158 0.0 0.0
1.100000023841858 0.0 0.0
1.0 0.0 0.0
0.8999999761581421 0.0 0.0
0.800000011920929 0.0 0.0
0.699999988079071 0.0 0.0
0.6000000238418579 0.0 0.0
0.5 0.0 0.0
0.4000000059604645 0.0 0.0
0.30000001192092896 0.0 0.0
0.20000000298023224 0.0 0.0
0.10000000149011612 0.0 0.0
0.0 0.10000000149011612 0.0
0.0 0.20000000298023224 0.0
0.0 0.30000001192092896 0.0
0.0 0.4000000059604645 0.0
0.0 0.5 0.0
0.0 0.6000000238418579 0.0
0.0 0.699999988079071 0.0
0.0 0.800000011920929 0.0
0.0 0.8999999761581421 0.0
0.7496038675308228 0.5164291858673096 0.0
1.3451675176620483 0.5190238952636719 0.0
1.9462687969207764 0.4963642954826355 0.0
4.456614971160889 0.5060901641845703 0.0
3.864220380783081 0.4866538345813751 0.0
3.249823808670044 0.482722669839859 0.0
2.6500000953674316 0.5 0.0
0.3810288906097412 0.399004191160202 0.0
2.308779239654541 0.3797946870326996 0.0
1.0499999523162842 0.6625000238418579 0.0
1.644740104675293 0.6598879098892212 0.0
4.150000095367432 0.3375000059604645 0.0
3.555316209793091 0.3343118131160736 0.0
2.9446933269500732 0.3401789665222168 0.0
1.6342840194702148 0.3290160894393921 0.0
1.0591840744018555 0.33908534049987793 0.0
2.9654481410980225 0.6753292679786682 0.0
3.5534629821777344 0.6835107207298279 0.0
4.153462886810303 0.6835107207298279 0.0
2.2139804363250732 0.6805098056793213 0.0
0.4914395809173584 0.6739721894264221 0.0
4.691666603088379 0.6916666626930237 0.0
4.691666603088379 0.3083333373069763 0.0
2.4872219562530518 0.7236665487289429 0.0
0.6240421533584595 0.2677222192287445 0.0
2.0697431564331055 0.2657754421234131 0.0
2.5389034748077393 0.26082900166511536 0.0
0.8147311806678772 0.7450684309005737 0.0
1.2897310256958008 0.743314266204834 0.0
1.8853894472122192 0.7450258731842041 0.0
4.382374286651611 0.23655959963798523 0.0
3.910269021987915 0.25668570399284363 0.0
3.1838724613189697 0.25397706031799316 0.0
1.398239254951477 0.2614254057407379 0.0
3.201760768890381 0.7385746240615845 0.0
3.8017609119415283 0.7385746240615845 0.0
4.39177942276001 0.7466779351234436 0.0
0.25301694869995117 0.7458874583244324 0.0
2.7258167266845703 0.7600342631340027 0.0
0.84163498878479 0.2263137847185135 0.0
0.22429518401622772 0.22429518401622772 0.0
2.7605957984924316 0.22504857182502747 0.0
1.8330284357070923 0.2150011658668518 0.0
0.2192869633436203 0.5323538780212402 0.0
4.7908525466918945 0.5038931369781494 0.0
2.466000556945801 0.5376454591751099 0.0
3.7061264514923096 0.17723728716373444 0.0
3.3929696083068848 0.20266839861869812 0.0
1.4905184507369995 0.7937026619911194 0.0
1.2104878425598145 0.20361483097076416 0.0
3.9895122051239014 0.7963851690292358 0.0
3.389512300491333 0.7963851690292358 0.0
0.5652223825454712 0.5070380568504333 0.0
0.44509074091911316 0.19716571271419525 0.0
2.1318352222442627 0.5042122602462769 0.0
1.548349142074585 0.4954715371131897 0.0
3.050636053085327 0.5004673004150391 0.0
0.9511125087738037 0.498258113861084 0.0
3.651650905609131 0.5045284628868103 0.0
4.248488903045654 0.4980509281158447 0.0
1.1537858247756958 0.49593159556388855 0.0
4.050199031829834 0.49993085861206055 0.0
3.464722156524658 0.509624183177948 0.0
1.749653697013855 0.5001751780509949 0.0
2.851828098297119 0.5057260394096375 0.0
2.359710216522217 0.1888567954301834 0.0
2.0499017238616943 0.8199846148490906 0.0
0.6430503129959106 0.8181284070014954 0.0
4.560274600982666 0.1724673956632614 0.0
4.55863094329834 0.8299665451049805 0.0
2.321284055709839 0.8242537379264832 0.0
4.815218925476074 0.8345447778701782 0.0
4.837246894836426 0.16590170562267303 0.0
0.9682294130325317 0.8331464529037476 0.0
1.730908751487732 0.827606201171875 0.0
4.220076560974121 0.17516615986824036 0.0
3.02066969871521 0.18326662480831146 0.0
1.5634372234344482 0.17044226825237274 0.0
3.035303831100464 0.8294908404350281 0.0
3.627507209777832 0.8360387086868286 0.0
4.2312469482421875 0.8315803408622742 0.0
4.618130683898926 0.5361976027488708 0.0
0.40311703085899353 0.8369210362434387 0.0
1.1473191976547241 0.8458209037780762 0.0
4.052680969238281 0.15417908132076263 0.0
2.020958423614502 0.6394158005714417 0.0
0.662188708782196 0.6447370648384094 0.0
4.5115838050842285 0.3538685142993927 0.0
1.0221220254898071 0.15309639275074005 0.0
0.3837882876396179 0.5515117049217224 0.0
3.548090934753418 0.15800617635250092 0.0
1.4348299503326416 0.6465393304824829 0.0
3.765170097351074 0.3534606993198395 0.0
3.3348300457000732 0.3534606993198395 0.0
1.2546738386154175 0.36384353041648865 0.0
3.945326089859009 0.636156439781189 0.0
3.3412928581237793 0.637225866317749 0.0
2.1904795169830322 0.17066854238510132 0.0
0.16392111778259277 0.38331863284111023 0.0
2.87723445892334 0.8265392184257507 0.0
4.8459792137146 0.6499902606010437 0.0
4.845625400543213 0.34837812185287476 0.0
2.771622896194458 0.38129922747612 0.0
4.5222978591918945 0.6578375697135925 0.0
2.604464530944824 0.8240283727645874 0.0
1.8544400930404663 0.3751189708709717 0.0
0.8566747903823853 0.38255012035369873 0.0
2.2932615280151367 0.5369129776954651 0.0
2.620572805404663 0.6496497392654419 0.0
0.7172287106513977 0.1490369737148285 0.0
0.1410960853099823 0.8303417563438416 0.0
1.7142322063446045 0.142862930893898 0.0
2.6314175128936768 0.14492936432361603 0.0
1.9832650423049927 0.1408119648694992 0.0
2.445650577545166 0.370038241147995 0.0
2.885042667388916 0.1455758661031723 0.0
0.13937503099441528 0.6546638011932373 0.0
0.9110832810401917 0.6349053978919983 0.0
3.088575839996338 0.3613528311252594 0.0
4.296638011932373 0.3563385307788849 0.0
1.1930090188980103 0.6355591416358948 0.0
1.788455843925476 0.6387236714363098 0.0
4.006990909576416 0.3644408583641052 0.0
1.4459187984466553 0.39242905378341675 0.0
4.354081153869629 0.6075709462165833 0.0
3.7540812492370605 0.6075709462165833 0.0
3.1591691970825195 0.6018876433372498 0.0
2.7615907192230225 0.6205627918243408 0.0
2.36276912689209 0.6735464930534363 0.0
1.3681535720825195 0.8630191683769226 0.0
3.8318464756011963 0.1369808316230774 0.0
3.275517463684082 0.10712132602930069 0.0
0.5630941987037659 0.12814241647720337 0.0
1.3237862586975098 0.10638008266687393 0.0
3.2733232975006104 0.8705052733421326 0.0
3.8733232021331787 0.8705052733421326 0.0
2.0396511554718018 0.38928428292274475 0.0
2.2168734073638916 0.8508136868476868 0.0
0.5163488388061523 0.3409615159034729 0.0
0.6547463536262512 0.3955095112323761 0.0
1.9480526447296143 0.8710126876831055 0.0
4.689375877380371 0.13700176775455475 0.0
4.698264122009277 0.8675068616867065 0.0
0.7578787803649902 0.8698469996452332 0.0
2.479548454284668 0.13692785799503326 0.0
2.4562506675720215 0.8735422492027283 0.0
2.171211004257202 0.3573116958141327 0.0
3.5117530822753906 0.853193998336792 0.0
4.107914924621582 0.8658969402313232 0.0
2.640726327896118 0.354434996843338 0.0
4.346996307373047 0.1279495507478714 0.0
0.3128283619880676 0.11246757209300995 0.0
0.136248379945755 0.12152919173240662 0.0
4.453908443450928 0.8629162907600403 0.0
1.6064813137054443 0.8679171800613403 0.0
0.3380795121192932 0.6626779437065125 0.0
0.5102446675300598 0.875635027885437 0.0
0.7425088882446289 0.2989330589771271 0.0
3.1349449157714844 0.10448489338159561 0.0
1.3287748098373413 0.6181886196136475 0.0
3.871795415878296 0.38215625286102295 0.0
3.229135036468506 0.3810797333717346 0.0
0.28971707820892334 0.8759857416152954 0.0
0.9214505553245544 0.11992674320936203 0.0
1.9219478368759155 0.6237660050392151 0.0
1.530794620513916 0.29603153467178345 0.0
3.072223663330078 0.7044162750244141 0.0
3.6722235679626465 0.7044162750244141 0.0
[...]
POINT_DATA 715
SCALARS Psi double
LOOKUP_TABLE default
0.0
0.0
1.0
1.0
1.0
1.0
1.0
1.0
1.0
1.0
1.0
1.0
1.0
1.0
1.0
1.0
1.0
1.0
1.0
1.0
1.0
1.0
1.0
1.0
1.0
1.0
1.0
1.0
1.0
1.0
1.0
1.0
1.0
1.0
1.0
1.0
1.0
1.0
1.0
1.0
1.0
1.0
1.0
1.0
1.0
1.0
1.0
1.0
1.0
1.0
1.0
1.0
1.0
0.9191219818608439
0.865117993501188
0.7637736886840731
0.6278463320167607
0.4713078500427184
0.31355786917474554
0.1753534441559103
0.07224728382558095
0.019069984497385346
0.0
0.0
0.0
0.0
0.0
0.0
0.0
0.0
0.0
0.0
0.0
0.0
0.0
0.0
0.0
0.0
0.0
0.0
0.0
0.0
0.0
0.0
0.0
0.0
0.0
0.0
0.0
0.0
0.0
0.0
0.0
0.0
0.0
0.0
0.0
0.0
0.0
0.0
0.0
0.0
0.0
0.0
-0.0
0.0
0.0
0.0
0.0
0.0
0.0
0.027348867749607635
0.10769454581996689
0.20922995746149708
0.31087317341201076
0.4124636540509889
0.5108182048180688
0.6026369918595363
0.6784497412710337
0.6416402250067307
0.5300066241833772
0.5434330514773686
0.500834697026004
0.4939126692765806
0.46869472199089257
0.47117965568195525
0.5108864270049699
0.32040115823921167
0.3089548685907239
0.7746605560825803
0.7655079482165041
0.22749415492818592
0.22311906308025672
0.2463877329213722
0.2277110056923155
0.2548332053745015
0.7928666645053948
0.7901524588583166
0.7874630321244815
0.7973544526853696
0.7598656611661565
0.7852109527126921
0.17776740528409435
0.854195449060947
0.15682479785463005
0.1448843836879692
0.14029989977862933
0.8815760980197622
0.8774628296791861
0.8755892359272713
0.09175716735600555
0.12218060083540103
0.12317297528775854
0.1355632216965536
0.8690861415109655
0.8629964166807512
0.8683624107327491
0.7934692100051025
0.9003090593417672
0.11057582743646292
0.11127134087370176
0.09639325459963033
0.08254874117843812
0.4645667525427323
0.48011305793344355
0.5735263889259037
0.03994301491762754
0.06259858877957976
0.9297152951294638
0.06978475340438733
0.9258264681141373
0.9265017831061861
0.4954286716384241
0.07117460089647937
0.5152787078529106
0.5011126029200137
0.5073983449425025
0.5097972837152903
0.5004811200786862
0.4844654374506353
0.506856738849213
0.4899111875436781
0.5114880943564066
0.5074241248035566
0.5201526654906773
0.057394082010438045
0.9534311679061095
0.9590411692288107
0.0370544422110323
0.9533765001531168
0.9592916085879463
0.9420413747928948
0.028650658171662964
0.9639061259637363
0.956636444315171
0.040310762386750465
0.05224030913802294
0.04082547066029253
0.9653848343504708
0.9613580555928881
0.9581581802613816
0.5402396287015557
0.9786719831951127
0.9709312250859605
0.029701098805175043
0.7341171772812629
0.734414852993478
0.2448932449993663
0.03679093486602868
0.529280579827279
0.028949200453314918
0.74844704100057
0.25095773984550246
0.25610003437342677
0.28705733606242856
0.7161964961710505
0.723682130320458
0.04424781766462047
0.29479635687022204
0.9645137549631886
0.7139019003995709
0.2289228163396897
0.3129238729576631
0.7425036058717706
0.9598844747218926
0.29949509572520044
0.322263462848771
0.570938112599479
0.7549280347442634
0.037259306582862084
0.8225950866842677
0.025537284075532084
0.02723762918473272
0.02500792960640696
0.29481851454427327
0.02624746404120763
0.5837978075334361
0.7316121334298268
0.27594119308113
0.2526502195474409
0.7336542155613452
0.7323369287278764
0.2691772264938896
0.32968359432935307
0.6661964759143431
0.6717341288385085
0.6736346833733099
0.7099539001791304
0.7863668580009914
0.9792135576414291
0.017580958331472354
0.0018127583311034385
0.021263560745623585
0.0010891846088134807
0.9814656199420917
0.9823647452203536
0.3236319370538641
0.976015493660557
0.24962408454587434
0.3344583773297805
0.9853236494531923
0.01974848235508595
0.9787550836898985
0.9849555441759421
0.02317234600975209
0.9841490703150266
0.2735712642707885
0.969785938859658
0.9802724234170264
0.2714653112044371
0.0057179264903525
0.006012048192042518
0.02258998706726858
0.9773574052170461
0.9812253774361605
0.6942249669665739
0.9922314579659917
0.19995667276256918
0.003012207999367734
0.7054392346309168
0.2967624711493201
0.3031540975121913
1.0187576523264534
0.021833785989217865
0.7088950278052101
0.1815033921488599
0.8298540195349774
0.8177714952411396
0.814731774809009
1.0058064909671964
0.6891266450386304
0.004093521292403959
0.994767461315156
0.994410506736697
0.15506106972382405
0.3250321253145342
0.182957058241443
0.9957773151627575
0.0036270083583168854
0.8689793055005481
0.29227083316930597
0.12748172684047854
0.3409428889581262
0.011527701984966856
0.1619965688267034
0.990586400438242
0.9901125855870387
0.12611833942945627
0.19048055153632237
-0.001540050801844594
0.44247938127442177
-0.0035269338466828795
0.4047649967916591
0.19347881223812763
-0.0037568423728764045
0.0007195111204419851
0.409694318621512
0.4289638906267281
0.4139865226842602
0.5924450819095297
0.5906139169627569
0.003094604691342416
0.552340986195581
0.0015965050201895115
0.6953682895279503
0.12945718720055643
0.6021251657019314
1.001181882087136
0.8046954553061821
0.17324161509210892
0.8030286558399679
0.18226920008466668
0.2004184152175205
0.8164832592443565
0.9983387245409159
0.0015696106662728994
0.13129090379316735
0.8662304448332627
0.1334512912365963
0.33044396287911115
0.6182721149557756
0.8273778535495409
0.10648760389883294
0.40841329008695315
0.4166561409127559
0.6119299910684279
0.5976129504050782
0.5916004589224861
0.02034356110669529
0.6538758170204311
0.1375374173003705
0.865764238775061
0.8615569322732675
0.5957087066839293
0.40761595912268656
0.4240001060867024
0.00369606983269375
0.5891326006797672
0.8686081723000006
0.1337304311393833
1.0064043638139357
0.19575257355832137
0.5742735535166619
0.657911729664642
0.4062207243192117
0.8621350486745372
0.5814566827544669
0.9992920057779817
0.45208442131686744
0.9883396862164731
0.9875395873484268
0.8959204239063615
0.8673173657030117
0.9583801283697624
0.006092848689061474
0.4240036981853398
0.7088136641224213
0.5766083964849962
0.682056237554085
0.36781202069783875
0.10464256713001154
-0.001391928396429549
0.43978067438948126
0.21143989819705397
0.8398315081502499
0.5645269954056279
0.4404987299479075
0.4467225066865414
0.8513201785450176
0.8765530812757488
0.13791998229794208
0.12263322310923422
0.8682144345670694
0.41071137067010643
0.9991146365937994
0.14237170736963078
0.9047980161013092
0.9058610491556042
0.3590389485041026
0.9175769428158365
1.0040547326602938
0.11414592308234714
0.14318638956748106
0.6759971999773368
0.3241916270229449
0.6772125155952928
0.6895796575453547
0.08459214337427536
0.6691709745554705
0.33425443131024196
0.33428915005629667
0.006507534417566584
0.475057467222909
0.2625500631197534
0.7374142955685671
0.7651780636854395
0.339768692360609
0.8772771871885711
0.6661170070505149
0.6614608776837324
0.6350984606176462
0.0076463798969652825
0.007448278179843171
0.1313322113796997
0.8230193307263584
-0.0030734185063577587
0.9160017590427221
0.915775746509921
0.8474929096683435
-0.003412111715046609
-0.002821038061215516
0.1901372003895421
0.3418024686160412
0.00015199812988496463
1.0004405663504394
0.33694378336029895
0.8867667145334025
1.0002084315019244
0.8834325397395751
0.11968896121381231
1.0058264700598532
-0.001552977547336085
0.10340595995638253
0.9954695393309564
-0.0004949925422321134
0.31752799162660145
0.0005966129412318928
0.6907111573611475
0.003678471534899946
1.0020313231166333
1.0044618767424742
0.11167329053193205
0.49314494769424266
0.15128051290455138
0.9978243598239609
0.8863231533239485
0.9988925793668523
0.32909116017778106
0.9993654778381473
1.0028007015682137
0.13329719217375974
0.08790014682433392
6.230446283708355e-05
0.2806742650297344
0.6490256772148411
0.5856413894822345
0.4122266335817428
0.5619616911619465
1.004012820338249
0.25553977010639184
0.5709832322047547
0.9999304775354084
0.0003210953184517191
-0.0013565910641910287
0.19359744112348473
0.40715306177375626
0.5793498092924613
-0.0018512969691320577
0.9207073107684008
1.0052511153377237
0.8847934606824205
0.09080479675563513
0.9144230966909649
0.907759839008798
0.6349992482901281
0.07799996022613911
0.895474006633977
-0.001890426947374294
0.28067297379493505
0.0026054881197192887
0.9330839061821466
0.0669766482170827
-0.001499511743704317
0.5879685949436652
0.5399640067738831
1.0042725604432268
1.0154470901683492
1.001527277429336
0.0012873697970286634
0.4336720572711191
0.6800634241797694
0.6878076728895708
0.6812735762372436
0.31966751856283443
0.31568222394158624
0.3313328817861011
0.9439570607368338
1.0353802678027826
0.997398053063425
0.9947023149193416
0.9634623420614018
0.6847614906582483
0.7572879754530235
-0.002043748488503249
0.06494176705999935
0.7912149113474639
0.7056186764620229
0.2318402951972629
0.872669056482105
0.08534826353276068
0.07578404858072918
0.7184295810925456
0.6194051810262968
0.43441247536265826
0.9981221107568328
1.0012634737725872
0.7731126225929392
0.10033628451099057
0.9309619240891075
0.21339303061306414
0.9524456822588744
0.053746541843452414
1.0003727239747104
0.0021546279341199846
0.36737906087097966
0.6124311945511417
0.3628255808039936
0.833281782986751
0.041773630660058826
0.5915783855871293
0.37552655597092044
0.8385315858385612
-0.0011918248243430341
-0.0035839738560678267
0.18944881891852086
0.17532073694601438
0.056309186678314416
0.10460968394955654
0.9456953044193948
0.8418141077203307
0.1597608316318961
0.8016096111592071
0.2041275411258521
0.9068459117541516
0.902572172266509
0.9022544305970615
-0.0046963652804385865
0.9410155153391947
0.3587096796378182
0.21744578762285083
1.0005233280502666
0.1693403935413428
0.5585729231905673
0.7133605059759641
0.610088557694625
0.6410670574905668
0.04322450378620126
0.9521941720205938
0.9511249814918034
0.055981636903048665
0.6962924494906976
-0.006173793522823245
1.0059299975407818
1.0037420830008539
0.037322034083057024
0.04231326462558189
0.8945022127291854
0.25190103477821235
0.947815394621162
0.45097656391257807
0.8599246199709317
-0.0003983549168858709
0.6443217932633983
0.3546476728295604
0.36622708201201337
1.0011322029332896
-0.002113840275926557
0.5573398195811372
-0.007554853244912234
0.41324509902346723
0.0673827949773987
-0.0011405430578105417
0.2356111584061423
0.6266986943929678
0.7203116444588548
0.7836684046423148
0.9500971207690027
0.04771751103177896
0.24220958261124834
0.18475650567353458
0.769769149201965
1.00453863232584
0.23310408835964547
0.06881199365826321
0.18540516581261185
0.0538356870192361
0.930202963121133
0.046629163612489366
0.2097199011389
0.7857494226164538
0.7900521666134608
0.800182707150374
0.40760255157868797
1.0058825689420454
0.37038325439791964
0.9175712437076525
-0.0012615456944460343
0.05105251188879934
0.04014865672502331
0.5979834209877037
0.07046527519692883
0.002098160170209161
0.05988029995827781
0.08157819696666539
0.4147638884149545
0.5612924378519006
0.030229127803886164
0.19540516540026587
-0.0018222898786444618
1.0001098110095392
0.918898883564709
0.4338366085049858
0.5694391045848569
0.62695408294566
0.9391894184083325
0.05127606434838205
0.0503157464899291
0.9982448737568937
0.030452285299829154
0.5060808185320596
0.32679456895356457
0.11868757031746671
-0.0008882823314159821
0.7918428599516656
0.9494455872840086
0.14468997198556766
0.12584210201605034
0.8540655996342801
1.001741221811058
0.044732934782113654
0.9433512959212158
0.9427131877511579
0.44479051429087135
0.44287040714664905
1.0008367264027573
0.21413435512261406
0.33467652342508997
0.37466559889447815
0.0002685208396684667
0.9675078583412953
0.9684433713427604
0.2445537687758144
0.596152665413807
0.8314016393015694
0.8341723419922491
0.18894630222689165
0.8309544920360492
0.2335250834269435
0.8812328335981444
0.8799719654274507
0.6196094868750511
0.8943281773322724
0.619268246637853
0.051402722847722224
0.9505774108994197
0.39370719089965095
0.6234064633455783
0.376109178524741
-0.00730979240377621
0.3126878758649184
0.056830112111493025
-0.0005312353457082417
0.566899377692051
0.11559367610307872
0.2202443573032912
0.08609435967079077
0.8002573280003001
0.8743929052806225
0.9760113798552918
0.5854759041133883
0.0032575038081684624
0.4048930733264673
0.07767964544200555
0.9992355895652235
1.0002394347969097
-0.0010024348882223743
0.05792933779082828
0.9456220846271949
0.0003876817022206186
-0.004307841186709317
0.233692921809943
0.768211806947651
0.4368621733581362
1.002884394583809
0.224746061109274
0.8192854168141996
0.19837280744085178
0.8089878049638934
0.190960974559954
0.9787184169632029
0.0016488008866109448
0.4107664359224155
1.0008886405577837
0.958566394694397
0.04368249884277122

SCALARS Omega double
LOOKUP_TABLE default
-7.676476768143203
-1.1902601886255157
8.562159518165885
15.920264646011283
36.51112450802738
-6.4776746670371965
2.423258596638294
-4.465544005222646
-0.42819503651595114
1.923007877957869
0.047584193042823346
-0.6379477938010816
0.4854952412336885
1.145057055931348
0.2284340746839818
0.8259164995454626
0.5336199521261439
0.7925271754701824
1.5477229303646838
-0.09925778384092125
1.407218808972201
1.2436170723418432
-0.44161664266538636
0.4896968576002911
1.0697760811898018
1.0441241187385772
0.7556284411693989
0.241430578213423
0.45812459741143124
1.421090698448343
1.1078180833491105
0.15493785861925488
1.330661910952857
0.8549366048098417
0.41609743059626714
1.1251982800508515
0.7537380103457328
0.37931191311239265
1.3236166572668302
0.6801493100176084
1.3939092376562436
0.7044564484127533
0.43180741000052536
0.3556650453439125
0.9518791801528822
0.7323760289919325
2.1561382475280593
0.46805593279256
-0.484366448298566
2.18731270600929
0.8847359995840219
1.886847625292982
9.599205005371797
-7.779799395059264
0.5355741833282638
2.7792370417285346
1.5889941445633253
-0.09551564944669189
-1.074654014741519
-2.562245037616058
-3.2349826841120404
-1.6076419591841558
-0.26674506336722437
-0.6763090181945278
-1.0752374157219386
-0.12111432225724192
-0.7179359871193528
-0.3770497941848246
-1.0700115719386207
-0.8178072505115198
-0.3067725054782826
-0.7160084645325695
-0.4559012686839689
0.10884545860019744
-1.7728990965065154
-0.6449418572923863
0.3946167719664203
-1.5022101295449677
-0.5997810321259947
-0.2909978146073784
-1.125456480920853
-0.8149063998441519
-0.4277924657025547
-1.1209698737932177
-0.9017284787198228
-1.4435453192195993
-0.15334524227089277
-0.5555505158343634
-0.9891877560964161
-1.10647424260001
-0.7475907473358382
0.7052023407262015
-1.4117864318798452
-1.2373500065710525
0.2199084337983926
-0.8547851992154823
-1.1175513483476038
-0.15547797951463208
-0.5532643114582576
-1.5249249660905193
-1.5303803509358473
-0.39214759974972613
-1.90630512439274
-0.4863161315322722
-2.0722779792469552
-0.49906869402280857
-0.14039406346092206
-2.0695322062590087
-1.9110392230713968
-0.8190273638818295
0.7511081489824153
-4.592722305513185
2.6458053367357737
0.3120335122019656
-0.025426581910777464
-0.8569635580993556
1.6497455019525764
-5.889190509599117
-2.3402243326450187
-42.608466508061866
-0.513562141137885
0.5099190663270278
0.08566802610820573
-0.09135344038743466
-0.306767650249451
-0.2405378007477819
0.16411226010896118
-0.3756397260480502
-1.859978211610837
3.124939775072088
2.785325164782945
-2.839667962883475
-2.869636795172294
-2.538630807998451
-2.7837046161049526
-2.0454005742550234
3.06367736400667
3.0340312390877813
2.9748469628677605
3.0450850820940647
2.3157817029047454
3.0324843576413425
-3.406472867771908
3.920269957433671
-2.5861276848915242
-4.067320545869179
-4.030999924849595
5.215147292808304
4.352659815659067
4.104140405050712
-4.760884015142353
-4.36378727131266
-4.272437737496899
-4.083583340555161
4.245380905328133
4.0434836720321545
4.27893985772792
1.9683064034298108
4.606711432444298
-3.968420551227156
-1.7027968932873516
-4.691912359788635
-5.043151796499585
-1.4213930258601155
-0.19846552859267347
0.7455930255193987
-6.2910159322713115
-5.455044668310631
5.06062346051054
-5.156007882549956
5.262942311969984
5.060191434537398
-1.26380831458648
-4.899017571529621
0.1984115846430836
0.1324900609556701
0.1179594776911532
-0.17272859522217524
0.007335149944022314
-0.18300120802564615
0.06227524914247554
-0.12044368714052364
0.12360019582426028
0.1811014941416948
0.2504157864301725
-5.639105893208579
5.409667122692256
7.334048408999003
-5.804433146775724
5.893497382241715
5.894096119638609
6.153676955550632
-5.424218731748104
5.647698722982742
5.29328187895419
-5.602507199900852
-5.500741113976879
-6.406643547045837
6.527769474545301
5.687020575122331
5.802164635241446
0.3366684281910135
13.253123828050052
5.615719415476269
-5.573535896059058
2.3479201136438306
2.2652402702189076
-2.5384302025331764
-5.438953705031515
-2.3404393471318663
-5.932753543069064
2.6686581883906073
-2.5395303401304
-2.467227699677759
-1.871734576420841
2.110944133031
2.2752049657718008
-5.604463362837757
0.0863932435839685
6.06836658776971
1.889636978058156
-2.360876034746207
-1.7810790066456206
2.412152618697953
5.630722106408957
-1.9394638524021477
-1.2691346442530234
0.7070951886382905
2.614398140278468
-6.108416461284333
-1.8668256826138607
-6.1829204956398724
-6.169041168667956
-6.332688963635707
-1.9989499615353679
-6.2311436710860635
-4.517735092379171
2.4842478483534416
-2.225789733187068
-2.508871913634109
2.555824850313739
2.382210433718821
-2.350032835315563
-1.5242617590339702
1.577913106916138
1.6842955736877354
1.7315930158021218
2.1307996382032455
3.001920090549883
5.741043827879877
-6.498190354501811
-7.5177352928134455
-6.640284548036951
-8.352955819642546
6.312306924238012
6.9002255875834395
-1.6805451561281963
6.699940570060494
-0.9132535954315333
-1.0066365002771442
6.63152068505785
-5.406757591009502
8.017813921874147
6.009329685831301
-6.193839053151067
5.608289090152325
-2.253421350523667
5.663050951322251
7.07321083685431
-2.238494033119584
-8.398691623608489
-10.849463573929844
-8.80519141255289
6.616908868782884
5.808704423693042
-1.0361582218782375
7.103074494206464
-2.1683884934084277
-7.883134464948832
2.21608474974231
-2.036621280206676
-1.9534156011889272
23.703597561957107
-6.213124378491122
2.119292203255512
-3.4287196310732644
3.610673786044765
3.353974535708865
3.339017241494618
7.48744863885616
1.624055067492234
-8.252340541498354
8.427467480562541
6.875066018515994
-1.4500994331758439
-1.6795436886663528
-3.4154510981063964
6.690207108478092
-6.662795664699893
4.11003344654664
-2.0586039292956064
-3.7614614838524525
-0.4457271718720075
-6.320021996278701
3.282462824731206
7.526993320218768
5.576233856677272
-4.238139474125126
-3.324818167178564
-9.955536651316251
-0.4820043840814289
-8.15881751584638
-1.4070805847026167
-3.189947949593943
-8.60063977540537
-7.828763537669178
-0.8850877562491257
-0.6133050202167973
-0.8184896807394125
0.7724009550260146
0.9841959155825237
-7.25548776384123
1.4115972690506051
-9.15575984451316
1.9838662067269879
-4.1338851668776915
-4.132288539124078
9.60377283657965
3.229611986664843
-3.1114466944130785
3.232305474437607
-3.3933765923814794
-3.178267757478066
3.412584524079774
6.702275008335027
-6.392185417837063
-4.208623134078422
4.137536403037938
-4.103954451435445
-1.2850850399505722
1.0916559659646718
5.936992016885559
-9.602406691985358
-0.7552394126824885
-0.7321004438271291
1.1142985186295167
0.9554428038759285
0.8308390832726248
-6.701387487487615
-8.023178801435781
-3.9005579587576595
4.143462323167989
4.026881479231369
0.9854071881113821
-0.8998579273133718
-0.6809150514297347
-8.856483176601838
0.9322556949487248
4.409851907738363
-4.079380722647631
9.41101217915376
-3.1850011237606064
-0.44120677899713895
0.2037350502573626
-0.8995238579064666
3.936879651026528
0.23893120063636966
8.41267016980932
-0.39953685828549773
6.65103423922201
6.186749991237248
4.516673760107583
5.497865857128008
2.7709761065731837
-7.659443246833917
-1.2878193263149893
2.0891401151164897
0.7816254378098636
1.79035471352676
-2.07323450762916
-4.572745678521367
-10.004197061511903
-0.6031708573377338
0.7357091489828501
3.6181763003656426
0.7267632426940687
-0.5727287088174033
-0.4828695107785571
5.484927626221466
4.904131629979466
-4.028938502080061
-4.147562786694802
3.9886385430189426
-0.7914927098140935
6.293425967919067