# vtk DataFile Version 1.0
2D Simulation C++
ASCII
DATASET UNSTRUCTURED_GRID
FIELD FieldData 1
NODES 1 2 int
715 1308

POINTS 715 double
0.0 0.0 0.0
5.0 0.0 0.0
5.0 1.0 0.0
0.0 1.0 0.0
0.10000000149011612 1.0 0.0
0.20000000298023224 1.0 0.0
0.30000001192092896 1.0 0.0
0.4000000059604645 1.0 0.0
0.5 1.0 0.0
0.6000000238418579 1.0 0.0
0.699999988079071 1.0 0.0
0.800000011920929 1.0 0.0
0.8999999761581421 1.0 0.0
1.0 1.0 0.0
1.100000023841858 1.0 0.0
1.2000000476837158 1.0 0.0
1.2999999523162842 1.0 0.0
1.399999976158142 1.0 0.0
1.5 1.0 0.0
1.600000023841858 1.0 0.0
1.7000000476837158 1.0 0.0
1.7999999523162842 1.0 0.0
1.899999976158142 1.0 0.0
2.0 1.0 0.0
2.0999999046325684 1.0 0.0
2.200000047683716 1.0 0.0
2.299999952316284 1.0 0.0
2.4000000953674316 1.0 0.0
2.5 1.0 0.0
2.5999999046325684 1.0 0.0
2.700000047683716 1.0 0.0
2.799999952316284 1.0 0.0
2.9000000953674316 1.0 0.0
3.0 1.0 0.0
3.0999999046325684 1.0 0.0
3.200000047683716 1.0 0.0
3.299999952316284 1.0 0.0
3.4000000953674316 1.0 0.0
3.5 1.0 0.0
3.5999999046325684 1.0 0.0
3.700000047683716 1.0 0.0
3.799999952316284 1.0 0.0
3.9000000953674316 1.0 0.0
4.0 1.0 0.0
4.099999904632568 1.0 0.0
4.199999809265137 1.0 0.0
4.300000190734863 1.0 0.0
4.400000095367432 1.0 0.0
4.5 1.0 0.0
4.599999904632568 1.0 0.0
4.699999809265137 1.0 0.0
4.800000190734863 1.0 0.0
4.900000095367432 1.0 0.0
5.0 0.8999999761581421 0.0
5.0 0.800000011920929 0.0
5.0 0.699999988079071 0.0
5.0 0.6000000238418579 0.0
5.0 0.5 0.0
5.0 0.4000000059604645 0.0
5.0 0.30000001192092896 0.0
5.0 0.20000000298023224 0.0
5.0 0.10000000149011612 0.0
4.900000095367432 0.0 0.0
4.800000190734863 0.0 0.0
4.699999809265137 0.0 0.0
4.599999904632568 0.0 0.0
4.5 0.0 0.0
4.400000095367432 0.0 0.0
4.300000190734863 0.0 0.0
4.199999809265137 0.0 0.0
4.099999904632568 0.0 0.0
4.0 0.0 0.0
3.9000000953674316 0.0 0.0
3.799999952316284 0.0 0.0
3.700000047683716 0.0 0.0
3.5999999046325684 0.0 0.0
3.5 0.0 0.0
3.4000000953674316 0.0 0.0
3.299999952316284 0.0 0.0
3.200000047683716 0.0 0.0
3.0999999046325684 0.0 0.0
3.0 0.0 0.0
2.9000000953674316 0.0 0.0
2.799999952316284 0.0 0.0
2.700000047683716 0.0 0.0
2.5999999046325684 0.0 0.0
2.5 0.0 0.0
2.4000000953674316 0.0 0.0
2.299999952316284 0.0 0.0
2.200000047683716 0.0 0.0
2.0999999046325684 0.0 0.0
2.0 0.0 0.0
1.899999976158142 0.0 0.0
1.7999999523162842 0.0 0.0
1.7000000476837158 0.0 0.0
1.600000023841858 0.0 0.0
1.5 0.0 0.0
1.399999976158142 0.0 0.0
1.2999999523162842 0.0 0.0
1.2000000476837158 0.0 0.0
1.100000023841858 0.0 0.0
1.0 0.0 0.0
0.8999999761581421 0.0 0.0
0.800000011920929 0.0 0.0
0.699999988079071 0.0 0.0
0.6000000238418579 0.0 0.0
0.5 0.0 0.0
0.4000000059604645 0.0 0.0
0.30000001192092896 0.0 0.0
0.20000000298023224 0.0 0.0
0.10000000149011612 0.0 0.0
0.0 0.10000000149011612 0.0
0.0 0.20000000298023224 0.0
0.0 0.30000001192092896 0.0
0.0 0.4000000059604645 0.0
0.0 0.5 0.0
0.0 0.6000000238418579 0.0
0.0 0.699999988079071 0.0
0.0 0.800000011920929 0.0
0.0 0.8999999761581421 0.0
0.7496038675308228 0.5164291858673096 0.0
1.3451675176620483 0.5190238952636719 0.0
1.9462687969207764 0.4963642954826355 0.0
4.456614971160889 0.5060901641845703 0.0
3.864220380783081 0.4866538345813751 0.0
3.249823808670044 0.482722669839859 0.0
2.6500000953674316 0.5 0.0
0.3810288906097412 0.399004191160202 0.0
2.308779239654541 0.3797946870326996 0.0
1.0499999523162842 0.6625000238418579 0.0
1.644740104675293 0.6598879098892212 0.0
4.150000095367432 0.3375000059604645 0.0
3.555316209793091 0.3343118131160736 0.0
2.9446933269500732 0.3401789665222168 0.0
1.6342840194702148 0.3290160894393921 0.0
1.0591840744018555 0.33908534049987793 0.0
2.9654481410980225 0.6753292679786682 0.0
3.5534629821777344 0.6835107207298279 0.0
4.153462886810303 0.6835107207298279 0.0
2.2139804363250732 0.6805098056793213 0.0
0.4914395809173584 0.6739721894264221 0.0
4.691666603088379 0.6916666626930237 0.0
4.691666603088379 0.3083333373069763 0.0
2.4872219562530518 0.7236665487289429 0.0
0.6240421533584595 0.2677222192287445 0.0
2.0697431564331055 0.2657754421234131 0.0
2.5389034748077393 0.26082900166511536 0.0
0.8147311806678772 0.7450684309005737 0.0
1.2897310256958008 0.743314266204834 0.0
1.8853894472122192 0.7450258731842041 0.0
4.382374286651611 0.23655959963798523 0.0
3.910269021987915 0.25668570399284363 0.0
3.1838724613189697 0.25397706031799316 0.0
1.398239254951477 0.2614254057407379 0.0
3.201760768890381 0.7385746240615845 0.0
3.8017609119415283 0.7385746240615845 0.0
4.39177942276001 0.7466779351234436 0.0
0.25301694869995117 0.7458874583244324 0.0
2.7258167266845703 0.7600342631340027 0.0
0.84163498878479 0.2263137847185135 0.0
0.22429518401622772 0.22429518401622772 0.0
2.7605957984924316 0.22504857182502747 0.0
1.8330284357070923 0.2150011658668518 0.0
0.2192869633436203 0.5323538780212402 0.0
4.7908525466918945 0.5038931369781494 0.0
2.466000556945801 0.5376454591751099 0.0
3.7061264514923096 0.17723728716373444 0.0
3.3929696083068848 0.20266839861869812 0.0
1.4905184507369995 0.7937026619911194 0.0
1.2104878425598145 0.20361483097076416 0.0
3.9895122051239014 0.7963851690292358 0.0
3.389512300491333 0.7963851690292358 0.0
0.5652223825454712 0.5070380568504333 0.0
0.44509074091911316 0.19716571271419525 0.0
2.1318352222442627 0.5042122602462769 0.0
1.548349142074585 0.4954715371131897 0.0
3.050636053085327 0.5004673004150391 0.0
0.9511125087738037 0.498258113861084 0.0
3.651650905609131 0.5045284628868103 0.0
4.248488903045654 0.4980509281158447 0.0
1.1537858247756958 0.49593159556388855 0.0
4.050199031829834 0.49993085861206055 0.0
3.464722156524658 0.509624183177948 0.0
1.749653697013855 0.5001751780509949 0.0
2.851828098297119 0.5057260394096375 0.0
2.359710216522217 0.1888567954301834 0.0
2.0499017238616943 0.8199846148490906 0.0
0.6430503129959106 0.8181284070014954 0.0
4.560274600982666 0.1724673956632614 0.0
4.55863094329834 0.8299665451049805 0.0
2.321284055709839 0.8242537379264832 0.0
4.815218925476074 0.8345447778701782 0.0
4.837246894836426 0.16590170562267303 0.0
0.9682294130325317 0.8331464529037476 0.0
1.730908751487732 0.827606201171875 0.0
4.220076560974121 0.17516615986824036 0.0
3.02066969871521 0.18326662480831146 0.0
1.5634372234344482 0.17044226825237274 0.0
3.035303831100464 0.8294908404350281 0.0
3.627507209777832 0.8360387086868286 0.0
4.2312469482421875 0.8315803408622742 0.0
4.618130683898926 0.5361976027488708 0.0
0.40311703085899353 0.8369210362434387 0.0
1.1473191976547241 0.8458209037780762 0.0
4.052680969238281 0.15417908132076263 0.0
2.020958423614502 0.6394158005714417 0.0
0.662188708782196 0.6447370648384094 0.0
4.5115838050842285 0.3538685142993927 0.0
1.0221220254898071 0.15309639275074005 0.0
0.3837882876396179 0.5515117049217224 0.0
3.548090934753418 0.15800617635250092 0.0
1.4348299503326416 0.6465393304824829 0.0
3.765170097351074 0.3534606993198395 0.0
3.3348300457000732 0.3534606993198395 0.0
1.2546738386154175 0.36384353041648865 0.0
3.945326089859009 0.636156439781189 0.0
3.3412928581237793 0.637225866317749 0.0
2.1904795169830322 0.17066854238510132 0.0
0.16392111778259277 0.38331863284111023 0.0
2.87723445892334 0.8265392184257507 0.0
4.8459792137146 0.6499902606010437 0.0
4.845625400543213 0.34837812185287476 0.0
2.771622896194458 0.38129922747612 0.0
4.5222978591918945 0.6578375697135925 0.0
2.604464530944824 0.8240283727645874 0.0
1.8544400930404663 0.3751189708709717 0.0
0.8566747903823853 0.38255012035369873 0.0
2.2932615280151367 0.5369129776954651 0.0
2.620572805404663 0.6496497392654419 0.0
0.7172287106513977 0.1490369737148285 0.0
0.1410960853099823 0.8303417563438416 0.0
1.7142322063446045 0.142862930893898 0.0
2.6314175128936768 0.14492936432361603 0.0
1.9832650423049927 0.1408119648694992 0.0
2.445650577545166 0.370038241147995 0.0
2.885042667388916 0.1455758661031723 0.0
0.13937503099441528 0.6546638011932373 0.0
0.9110832810401917 0.6349053978919983 0.0
3.088575839996338 0.3613528311252594 0.0
4.296638011932373 0.3563385307788849 0.0
1.1930090188980103 0.6355591416358948 0.0
1.788455843925476 0.6387236714363098 0.0
4.006990909576416 0.3644408583641052 0.0
1.4459187984466553 0.39242905378341675 0.0
4.354081153869629 0.6075709462165833 0.0
3.7540812492370605 0.6075709462165833 0.0
3.1591691970825195 0.6018876433372498 0.0
2.7615907192230225 0.6205627918243408 0.0
2.36276912689209 0.6735464930534363 0.0
1.3681535720825195 0.8630191683769226 0.0
3.8318464756011963 0.1369808316230774 0.0
3.275517463684082 0.10712132602930069 0.0
0.5630941987037659 0.12814241647720337 0.0
1.3237862586975098 0.10638008266687393 0.0
3.2733232975006104 0.8705052733421326 0.0
3.8733232021331787 0.8705052733421326 0.0
2.0396511554718018 0.38928428292274475 0.0
2.2168734073638916 0.8508136868476868 0.0
0.5163488388061523 0.3409615159034729 0.0
0.6547463536262512 0.3955095112323761 0.0
1.9480526447296143 0.8710126876831055 0.0
4.689375877380371 0.13700176775455475 0.0
4.698264122009277 0.8675068616867065 0.0
0.7578787803649902 0.8698469996452332 0.0
2.479548454284668 0.13692785799503326 0.0
2.4562506675720215 0.8735422492027283 0.0
2.171211004257202 0.3573116958141327 0.0
3.5117530822753906 0.853193998336792 0.0
4.107914924621582 0.8658969402313232 0.0
2.640726327896118 0.354434996843338 0.0
4.346996307373047 0.1279495507478714 0.0
0.3128283619880676 0.11246757209300995 0.0
0.136248379945755 0.12152919173240662 0.0
4.453908443450928 0.8629162907600403 0.0
1.6064813137054443 0.8679171800613403 0.0
0.3380795121192932 0.6626779437065125 0.0
0.5102446675300598 0.875635027885437 0.0
0.7425088882446289 0.2989330589771271 0.0
3.1349449157714844 0.10448489338159561 0.0
1.3287748098373413 0.6181886196136475 0.0
3.871795415878296 0.38215625286102295 0.0
3.229135036468506 0.3810797333717346 0.0
0.28971707820892334 0.8759857416152954 0.0
0.9214505553245544 0.11992674320936203 0.0
1.9219478368759155 0.6237660050392151 0.0
1.530794620513916 0.29603153467178345 0.0
3.072223663330078 0.7044162750244141 0.0
3.6722235679626465 0.7044162750244141 0.0
[...]
POINT_DATA 715
SCALARS Psi double
LOOKUP_TABLE default
0.0
0.0
1.0
1.0
1.0
1.0
1.0
1.0
1.0
1.0
1.0
1.0
1.0
1.0
1.0
1.0
1.0
1.0
1.0
1.0
1.0
1.0
1.0
1.0
1.0
1.0
1.0
1.0
1.0
1.0
1.0
1.0
1.0
1.0
1.0
1.0
1.0
1.0
1.0
1.0
1.0
1.0
1.0
1.0
1.0
1.0
1.0
1.0
1.0
1.0
1.0
1.0
1.0
0.9193229709645858
0.8658040763258346
0.7647055922785152
0.6282478315158979
0.4706215867625598
0.3118870325553762
0.17349558330871998
0.07105548119835563
0.01869627330811207
0.0
0.0
0.0
0.0
0.0
0.0
0.0
0.0
0.0
0.0
0.0
0.0
0.0
0.0
0.0
0.0
0.0
0.0
0.0
0.0
0.0
0.0
0.0
0.0
0.0
0.0
0.0
0.0
0.0
0.0
0.0
0.0
0.0
0.0
0.0
0.0
0.0
0.0
0.0
0.0
0.0
0.0
-0.0
0.0
0.0
0.0
0.0
0.0
0.0
0.027349010531356705
0.10769488923974675
0.2092305315308027
0.31087394344274294
0.412464556767641
0.5108191656788074
0.6026380321105438
0.6784508833814329
0.6416408785508285
0.5300625541907219
0.5435992249227466
0.5008240086056766
0.49397013243365023
0.46946039360666336
0.47132426724505444
0.5094854923368747
0.3204062610972051
0.30715450955837753
0.7747483271988436
0.7663978535191918
0.2267058982607491
0.22288241497079594
0.24476355466427335
0.22713316769944786
0.2548600986239163
0.7932414490514789
0.7918177974982323
0.789089869969275
0.7979768761512084
0.7598859473507149
0.786412384862317
0.17606725358895386
0.8543238321007598
0.15684003620809245
0.1436575052260705
0.1386460512774271
0.8816100419303223
0.8776346346893762
0.8763989362094977
0.09094231840614332
0.12169836411380018
0.12251986842168874
0.1353827666710762
0.8699128401262618
0.8643395351178814
0.8694681955516358
0.7934737295521879
0.9003871550365705
0.11060126173220461
0.11127156180333579
0.0951668143474652
0.08194155736930414
0.4645687652106848
0.47951671354143044
0.572641655072636
0.03982301055455346
0.062395160653616576
0.9299574121171668
0.06977836356312934
0.9266757078052504
0.9272513800392996
0.4954559236607842
0.07117601406686917
0.514968931498796
0.5012891213922261
0.5069489025411693
0.5098748130815262
0.5015151852463856
0.4848107591694121
0.506942626600817
0.4905816237504972
0.512399974041444
0.5076327980535559
0.5191078255984982
0.056685908991066486
0.9537395971914364
0.9590472050902408
0.03659183779692332
0.9538208282742621
0.9594219688093898
0.9425670268680805
0.0280067260891603
0.9639140596110004
0.9568847052029298
0.04000282214283133
0.051749305697930424
0.04069359384152119
0.9655247271508671
0.9617854302975826
0.9586268879954281
0.5403732095983869
0.9786721633262149
0.970932098131312
0.029523580737372945
0.7350546620307775
0.7344561994505641
0.24348157404851078
0.036798312374456736
0.5292901685229645
0.02888080185493413
0.7489509882730906
0.25073308584520987
0.2556581704690829
0.28700247015639097
0.7179395494691767
0.7250433323818516
0.04372442766787702
0.2947971531295241
0.9645628862520813
0.7149936878310846
0.22676945526465617
0.310890833443713
0.7438031610245611
0.9599130932772431
0.29865206305944864
0.322316847952543
0.5704865359293403
0.7547788092108353
0.03726398509775412
0.8225967790799852
0.025389951855889003
0.026825378600943504
0.0247564709399673
0.2927519431523191
0.02594348761614348
0.5837992724214821
0.7316829307780414
0.2748372403607391
0.25168177978571293
0.7338168753022436
0.7333405954849606
0.2687196562109914
0.3295057439181595
0.667426822717315
0.6734305377566402
0.6743325328540766
0.709691497897038
0.7865956543384556
0.9792021664557025
0.01753278173392663
0.0018507545579057416
0.0212633750015706
0.0011100366602802007
0.981601083769575
0.982552381033297
0.32249471558255943
0.976110021973966
0.24963610858648663
0.33448980048021026
0.985371624060257
0.01950802002364317
0.9789552036778453
0.9849574061530234
0.022887458547457704
0.984171291440671
0.2719963787695963
0.9701114101470737
0.980511356342106
0.26927634933479594
0.005702010841312043
0.006011491887926326
0.022590017083397248
0.9775571227856834
0.981247375818582
0.6942339921954986
0.9922283623172486
0.1999874519202094
0.0030296533267580943
0.7057376212692172
0.29660128424378224
0.3025717105813666
1.0187569772417338
0.021838243656466343
0.709847708033072
0.18111408600324475
0.8304822629575271
0.8193406338157222
0.8161501084390265
1.0057522588773518
0.6891856606736309
0.004115358982262414
0.9948029082243051
0.9943990346083198
0.15506254486442445
0.3235292951207359
0.18181941989674252
0.9957608024130825
0.0036424890226773154
0.8691994933247282
0.2912409688954689
0.12750732478896157
0.3409448155774705
0.01141549676688243
0.16199703872845858
0.9905829086978984
0.990114365051179
0.12477863225148739
0.18966419844549742
-0.0015305762248247323
0.4407534605910833
-0.0034377683767080275
0.40476595472666915
0.1916921860596928
-0.0037167683178785512
0.0007652149935214878
0.40970283044498174
0.4277566392050584
0.41451120924915436
0.5925411567993384
0.5911488672383998
0.0031015054279958914
0.5523015480597947
0.0016079099147797578
0.6950367848884841
0.12781428387001417
0.6021285502569828
1.00111548179428
0.8062973377731364
0.17323127257574722
0.8045335246793199
0.18190462394684204
0.2001648037189654
0.8171641864723872
0.9983435381737846
0.0016132271982940468
0.1308890521752943
0.8665459497825792
0.13292677987366616
0.3304985092117267
0.6188601851510317
0.8286147499578368
0.10456642105516575
0.40825063818267193
0.4167169355721448
0.6116829973454532
0.5990442651703007
0.5927379248365356
0.020349947046682314
0.6538769879087861
0.13744190783802912
0.8668090044624213
0.8629457288113705
0.5958703778997608
0.40790685821672457
0.42353779038983796
0.00377087134088335
0.5897185462956557
0.8686864037248243
0.13301816392206858
1.0063309642005853
0.19389157734716111
0.5743160719202852
0.6579432959474798
0.40547098898848183
0.8629515044587306
0.5815284071422939
0.9992119432616272
0.45075904416427803
0.9884500040301246
0.9876424746192728
0.8964890110629047
0.8673458003608866
0.9584910542716858
0.005906628582948012
0.42401603076439154
0.7087199220247755
0.5768771672842528
0.682648986761432
0.36618158669297696
0.10358045384241821
-0.001392444244601047
0.4396275181843187
0.21144084686839468
0.8406249625832015
0.5648034679061746
0.44118428552884764
0.4470657652553036
0.8513429770549154
0.8765921668156058
0.13701513375182184
0.12175349363250573
0.8690412089868707
0.40948904039543316
0.999084243166284
0.14238002901402705
0.9057932257120717
0.9068503366951759
0.3572635679596757
0.9178246569198449
1.0040494953915493
0.11305840296928439
0.14180541621254258
0.6773848744288988
0.32390014781768434
0.6789376892406134
0.6899996015769013
0.084174704930143
0.6697894067546093
0.33443192103420555
0.33431741569534673
0.00650728429977141
0.47354315133367764
0.26239751422835955
0.7391906841190943
0.7662704465281012
0.3392503128315688
0.8773616137230226
0.6676369415474482
0.6630054927684769
0.6360857752736252
0.0075860583374583465
0.0074415376134388455
0.12965532975371472
0.8242092503137223
-0.0030556044898949705
0.9160099019163314
0.9161097037297656
0.8486268011032797
-0.0033637569086146877
-0.002757608028413936
0.1901415936005195
0.3409114659824652
0.00026200973307232903
1.0004304420566592
0.3369883172407109
0.8877677149316356
1.000175721152953
0.8834740736546373
0.11894381328191804
1.0057894792165947
-0.0014384883998190482
0.10213176549382003
0.9955140742820634
-0.0004393170968737384
0.3175282584294429
0.0005937941118289507
0.6917659076974808
0.0036568775843285905
1.0019675215899833
1.0044007790123335
0.11140708652522216
0.4931459499403532
0.1498680075125083
0.9977752476869494
0.8865424092662308
0.9988944777193806
0.32743088203445136
0.9993691877939073
1.0027988234956855
0.1333127902195142
0.08765575864009992
7.329408644560148e-05
0.27917141630015296
0.6487674563257787
0.5856613258121139
0.4122421261827278
0.5631655257409751
1.0040007414314491
0.25554045995293456
0.5714820987993968
0.9999248864104044
0.00035460514781799485
-0.001321516323609908
0.19363644791737802
0.40715839342050764
0.5783531488720224
-0.0018092174148989463
0.9215253216905306
1.00518724143248
0.8847986491611582
0.09059005214564278
0.9149172261975665
0.9087674017641494
0.6343187812084652
0.07705338569258231
0.8963430907112896
-0.0018960300834411441
0.27842102070281105
0.002621854251208021
0.9331339024974155
0.06661556749245506
-0.001475297578311749
0.5888865558777221
0.539968860014467
1.0042349162054132
1.0154458876500712
1.00148351698042
0.0013014182216878262
0.43343516297385853
0.6801488141294936
0.6879310996596429
0.6821457233083784
0.31907607826238843
0.3152694087074381
0.33004669244842777
0.9440357610238584
1.0353797142659167
0.9974022070391004
0.9947480357152295
0.9634717056994596
0.6847763814980494
0.7573133582269834
-0.001973907243345417
0.06494668406449354
0.7911823925592933
0.7066109670812736
0.229670404387584
0.8726695073810812
0.08434800894155361
0.07531823327735533
0.7186638621645062
0.6209275743916134
0.4344723329327722
0.9980719817108468
1.0012083403237053
0.7744934379291096
0.10035553473877443
0.9313510126378342
0.21136070491801315
0.9524889980781365
0.05298263636780771
1.000338898825719
0.002154022589832251
0.36624896765250203
0.6128966001252332
0.3607689348872481
0.8332926628056495
0.04134450739574238
0.591516318984716
0.3755278278801289
0.8394116935263912
-0.001155126818735793
-0.0035104207354621445
0.1894493347866538
0.17406541531353095
0.05615138739514712
0.10366485887233001
0.9457109234406424
0.8419575762435013
0.159167969718776
0.8016743758802436
0.20321223675739483
0.9068480602493392
0.9036199362984171
0.9032552120084605
-0.0046267081680676685
0.9414109479541437
0.35873088211640497
0.21614260366599902
1.0004596243002264
0.16838914768129976
0.5588807834050479
0.7143898620032482
0.611322059108317
0.6411183491112626
0.04318251023789598
0.9525663108616796
0.9516986809411119
0.05516097173020797
0.6962949940971244
-0.006146949864648778
1.0058269601266694
1.0036615585797266
0.03712933743641689
0.0412968400957219
0.895123151600503
0.25192062025502854
0.9482971270178593
0.4502807352107046
0.8602941844969424
-0.0003982655283489627
0.6446520108255358
0.3548396148003929
0.3660483713666377
1.00110095620436
-0.002079186947475823
0.5573407581148055
-0.007555568511347331
0.41322368161145984
0.06739033831653986
-0.0011413305628351393
0.23470862094398695
0.6273149229162063
0.7203128844923553
0.784735122904809
0.9501467742956669
0.047493036792696966
0.24075066799759903
0.18364425884390073
0.7698279101922324
1.0044597276055836
0.23313082124865325
0.06806850925047414
0.18414791671688616
0.05323037260885375
0.9305179419181367
0.046240994994884085
0.20943633071544804
0.7871863835074125
0.791739029555218
0.8010387061674248
0.4076666529390576
1.0058771859028142
0.3695980218299409
0.9181409582439614
-0.0012178086418963732
0.05068246855051083
0.03956757438450359
0.5972093490155368
0.06983953575287596
0.0020967255450134153
0.059880537665961284
0.0815783007577102
0.4130029322801439
0.5619209407316239
0.029836671361856578
0.19346962057390396
-0.0018223322129676091
1.000067257439357
0.9189206861895748
0.43383348128870136
0.5707954878279449
0.6277806605794841
0.9393306919386738
0.05109562013484138
0.05012107492529973
0.9982440054210342
0.030245781995864498
0.5060822682890673
0.32490447892186064
0.11870393605377975
-0.0008284770610716787
0.7918169246830032
0.9494507303760413
0.14427075445761706
0.12551397967024008
0.8545260232560786
1.0017340985097318
0.04472112711489609
0.9438706565026596
0.9433686331830211
0.4442912296932386
0.44290996174123587
1.0007941184986953
0.21417356453946942
0.3346773432583906
0.374241335779878
0.0002622046221268127
0.9678847485549985
0.9687789297946146
0.24455612855673647
0.5976193329503486
0.8328882501827573
0.8354220929257252
0.1889003016890788
0.8310539630554059
0.23177327685528482
0.882435400434081
0.8811279928068984
0.6196874684674979
0.8947331820686405
0.6199525576698357
0.051048759733666814
0.9505907232145677
0.39288331831902945
0.6235421478648072
0.37613500785287723
-0.007186157798801281
0.3126976724018007
0.05683208534733263
-0.00048186953039444934
0.5676536058798616
0.1152119981225041
0.22028104620226902
0.08609455718951653
0.8003034522007418
0.8744654793692941
0.9760475453925228
0.5856415803554683
0.0032581303547697667
0.40399226960454854
0.07769973147002464
0.9992079407310384
1.0002049846975647
-0.0009606284424645602
0.05792935207582547
0.946151487493478
0.0004044526771110734
-0.004173516036904786
0.23321729474553954
0.7684407501701424
0.4368653028570311
1.0028177759135484
0.22286931210037036
0.8202795047858769
0.19768611720548626
0.8092948172315095
0.1905198155851419
0.9787055826405134
0.0016246892443782244
0.4088436989320604
1.000886270647168
0.9586552739984773
0.04322585478958969

SCALARS Omega double
LOOKUP_TABLE default
-7.676494547641218
-1.1825464386506608
8.574651547472891
15.920184941956121
36.51091116200136
-6.477767229926599
2.423284797812459
-4.464766566746417
-0.42785629287138344
1.9233284092674565
0.048063931382333884
-0.6372321142707893
0.48507729164291624
1.1458060118864366
0.23191665905393885
0.8260821824937932
0.5461815428121157
0.7953421648512228
1.5546124785238553
-0.09046362446607928
1.4109955770979985
1.2423569671424095
-0.4178718737666861
0.48770456874099377
1.0658558920481442
1.0382114872329127
0.7600639229235275
0.2394080286141935
0.46036712533160595
1.4222911574526043
1.109078638277051
0.16230632764702863
1.33087632920027
0.8605235851159793
0.4159765255281144
1.1178880685560766
0.7531343441685353
0.37791973992421146
1.3116776505247685
0.6760035264612076
1.3800198242097435
0.6968064798885468
0.433418021254493
0.3528692560305086
0.9435850122602695
0.7261675732417835
2.1302719294837216
0.4654677879914051
-0.46895000936891146
2.1658716794015267
0.8730579556759699
1.8671815187078586
9.585927473433019
-7.8240004176270155
0.5609949877220922
2.840755820275943
1.6247180111141657
-0.10291629830031143
-1.1352570095488346
-2.6220651495945795
-3.2826752195049846
-1.5659871390216558
-0.25523991568662635
-0.6564749327928158
-1.0594437165695167
-0.13033790231616452
-0.7060971769603027
-0.37917542191820136
-1.065104588677967
-0.815880721414854
-0.3094895646433069
-0.7182636713679401
-0.4575779453823808
0.09877107607307108
-1.7672454344003063
-0.6477108512043908
0.38832794976297513
-1.4955854413430667
-0.599754552466925
-0.2973188376558016
-1.1132005476967537
-0.8092042530798176
-0.42495191822364564
-1.107449098041051
-0.8899629543776332
-1.4224262706278974
-0.1651548026000425
-0.557462888995943
-0.9734151918635645
-1.0888155145691445
-0.7434495116802304
0.6922412312709955
-1.3991413940836603
-1.2280618344166732
0.20895885671663428
-0.8521540695116334
-1.1184660102291533
-0.162304336131434
-0.5572641986069964
-1.526500316223871
-1.5310175668891524
-0.3936084510481324
-1.9063258996454326
-0.4860222938173321
-2.0723017328022433
-0.49883719764952233
-0.13997713954909557
-2.069522446793639
-1.910961872397153
-0.8190374803611887
0.7511214276608129
-4.592710013552816
2.6458083892508415
0.3120412303280053
-0.025407199645362418
-0.8569636906157803
1.6497816637514384
-5.8892521729402905
-2.340375026141099
-42.608357732144334
-0.5124654436369841
0.5140539596202327
0.09899893652303317
-0.08888711467390235
-0.2987922853249301
-0.2472648329969171
0.1343769495078806
-0.3760518128228662
-1.9621617968282414
3.1277117855090544
2.8639073266995676
-2.928547278018667
-2.9320873152160294
-2.642778230509706
-2.840308022306528
-2.0458691302881924
3.1292105319603647
3.137192030944944
3.088145885771445
3.1263593754244305
2.317015919543462
3.1352125560362323
-3.5159710570133265
3.958904942692323
-2.585916421682208
-4.1464671328696925
-4.108515156512141
5.215806693567346
4.356860971084542
4.162665892826307
-4.80728885311088
-4.420075916501738
-4.311367103499953
-4.098970041916547
4.299420749024295
4.105567685953782
4.343914488096946
1.9687616629235325
4.6316301414225665
-3.967431738807829
-1.7028429407549868
-4.729439119781235
-5.07334133931106
-1.4216545385461032
-0.21451867309721637
0.755580768130131
-6.280841284585223
-5.4544655280700445
5.0573131957391775
-5.152030401455414
5.265152417478885
5.067959847509201
-1.263949361573309
-4.899374211891044
0.21456352923579886
0.13371637806814785
0.10614520206253168
-0.17070412313770386
0.03421390762375172
-0.18078119976452459
0.06363858065907116
-0.10800164396594661
0.1524491908879272
0.19307669281743997
0.23041904208545053
-5.617653655182655
5.387573994793068
7.332463189166128
-5.764661166207919
5.864240410075741
5.877217181988882
6.149340932179819
-5.35981515282841
5.6424557537779
5.2576605088564685
-5.579103255039982
-5.48098476149543
-6.3908365116194865
6.50263478828365
5.638570036144067
5.767222016428339
0.3680979083600582
13.251762153896792
5.602465572271709
-5.541263669678786
2.4505569365146704
2.267056504114151
-2.6563415833098016
-5.438353573799308
-2.3409295442396565
-5.913476909580266
2.7051495855372134
-2.607419045046384
-2.531664143762238
-1.8811085801373857
2.22235393547211
2.371359117011758
-5.577865512463486
0.0863397979004212
6.050678912879816
1.9944860559535766
-2.4896974317809013
-1.8922042908163152
2.532385683576264
5.625037060102225
-2.0145860623762117
-1.2680553649821984
0.7388780195295995
2.6685751422459973
-6.1100255377989745
-1.8663633208745973
-6.148818062421053
-6.1022935420038955
-6.275394346790705
-2.1168728666743672
-6.162543854840447
-4.518017768053414
2.486826096619638
-2.304474663222455
-2.6065055008736047
2.562939087395753
2.470792483367324
-2.430838437947235
-1.5481750557827207
1.6765402038965405
1.7809410160465855
1.8007285195419904
2.178443993604421
3.0614115458280455
5.706468964129225
-6.459544666959503
-7.466666668950018
-6.641332162959051
-8.338134786017525
6.2490320065971545
6.815556750304783
-1.7660434255912691
6.664426604995551
-0.913471382566948
-1.0066704402394446
6.558420601055524
-5.32991839014417
7.947670556433269
6.007133358600553
-6.102495823223228
5.593177605511107
-2.3630956054402192
5.607556532423614
6.9962063532737675
-2.3684567668991523
-8.306473701093545
-10.849667937034477
-8.805225510633889
6.544141695868839
5.750662100473899
-1.03578552481799
7.100771373116733
-2.167644072060925
-7.806141001533916
2.2325736113537107
-2.1013228600718588
-2.013163620320726
23.702585634379847
-6.214213605901141
2.2106366655843614
-3.4659489814919024
3.675326873847025
3.445527014961312
3.4426522279370437
7.464929139431122
1.6261634621779482
-8.21939002559032
8.31581596716653
6.810637113867324
-1.4502280704377637
-1.7863733220747335
-3.508784643873535
6.682222393061453
-6.609533794442377
4.152390350189587
-2.156401985876739
-3.7599066632327705
-0.4459845223492308
-6.241875595286901
3.2824790589191393
7.445878607469042
5.574513439341785
-4.312609904661814
-3.398310244451201
-9.953327521659462
-0.5443612754812411
-8.01668274499529
-1.4071359018291825
-3.2972022262596408
-8.56023604569762
-7.785629725341771
-0.9201362489235956
-0.6712807262146908
-0.829913000527852
0.7754503937160383
1.0203642842674665
-7.14952968854381
1.4589426822988467
-9.058448775326575
2.0275170421349333
-4.2089351318350365
-4.132587190372496
9.471231209307392
3.3303118694068896
-3.1137802038056024
3.3257963200868215
-3.452303801110196
-3.2414435094613205
3.4711724569438616
6.706750068109337
-6.319567020890059
-4.264248568923243
4.1569547071392305
-4.148670270704882
-1.2840828080782005
1.1664441642952985
6.131250911429085
-9.819019345331437
-0.7807264370235765
-0.7314614926389637
1.1438970666652766
1.0233041662552322
0.8967641689010305
-6.7018954369034
-8.023474718469318
-3.908477029833862
4.207997659719887
4.097718171327495
0.9911429378648009
-0.9266389675779162
-0.7183706889064112
-8.693770786554968
0.9873261259286094
4.409987038947875
-4.1511769929502655
9.360853865168465
-3.3023035567605046
-0.44033076356579176
0.2048321269502162
-0.9568910421099628
4.001887223641882
0.24096672933732183
8.357365563457364
-0.44106184377705704
6.554186591044706
6.110563973328578
4.547539898853714
5.4990219522321135
2.642375612389329
-7.5077364801654545
-1.2884642755220932
2.1465518951038276
0.8356681338717352
1.8809706444546666
-2.2291851309063233
-4.610571407442122
-10.004430482127251
-0.6309992448781896
0.7356097993101073
3.6935525024174134
0.7383159296544589
-0.5739769518133475
-0.4907621763076506
5.486111323919505
4.904014131926716
-4.078090524194196
-4.221633040346863