# vtk DataFile Version 1.0
2D Simulation C++
ASCII
DATASET UNSTRUCTURED_GRID
FIELD FieldData 1
NODES 1 2 int
715 1308

POINTS 715 double
0.0 0.0 0.0
5.0 0.0 0.0
5.0 1.0 0.0
0.0 1.0 0.0
0.10000000149011612 1.0 0.0
0.20000000298023224 1.0 0.0
0.30000001192092896 1.0 0.0
0.4000000059604645 1.0 0.0
0.5 1.0 0.0
0.6000000238418579 1.0 0.0
0.699999988079071 1.0 0.0
0.800000011920929 1.0 0.0
0.8999999761581421 1.0 0.0
1.0 1.0 0.0
1.100000023841858 1.0 0.0
1.2000000476837158 1.0 0.0
1.2999999523162842 1.0 0.0
1.399999976158142 1.0 0.0
1.5 1.0 0.0
1.600000023841858 1.0 0.0
1.7000000476837158 1.0 0.0
1.7999999523162842 1.0 0.0
1.899999976158142 1.0 0.0
2.0 1.0 0.0
2.0999999046325684 1.0 0.0
2.200000047683716 1.0 0.0
2.299999952316284 1.0 0.0
2.4000000953674316 1.0 0.0
2.5 1.0 0.0
2.5999999046325684 1.0 0.0
2.700000047683716 1.0 0.0
2.799999952316284 1.0 0.0
2.9000000953674316 1.0 0.0
3.0 1.0 0.0
3.0999999046325684 1.0 0.0
3.200000047683716 1.0 0.0
3.299999952316284 1.0 0.0
3.4000000953674316 1.0 0.0
3.5 1.0 0.0
3.5999999046325684 1.0 0.0
3.700000047683716 1.0 0.0
3.799999952316284 1.0 0.0
3.9000000953674316 1.0 0.0
4.0 1.0 0.0
4.099999904632568 1.0 0.0
4.199999809265137 1.0 0.0
4.300000190734863 1.0 0.0
4.400000095367432 1.0 0.0
4.5 1.0 0.0
4.599999904632568 1.0 0.0
4.699999809265137 1.0 0.0
4.800000190734863 1.0 0.0
4.900000095367432 1.0 0.0
5.0 0.8999999761581421 0.0
5.0 0.800000011920929 0.0
5.0 0.699999988079071 0.0
5.0 0.6000000238418579 0.0
5.0 0.5 0.0
5.0 0.4000000059604645 0.0
5.0 0.30000001192092896 0.0
5.0 0.20000000298023224 0.0
5.0 0.10000000149011612 0.0
4.900000095367432 0.0 0.0
4.800000190734863 0.0 0.0
4.699999809265137 0.0 0.0
4.599999904632568 0.0 0.0
4.5 0.0 0.0
4.400000095367432 0.0 0.0
4.300000190734863 0.0 0.0
4.199999809265137 0.0 0.0
4.099999904632568 0.0 0.0
4.0 0.0 0.0
3.9000000953674316 0.0 0.0
3.799999952316284 0.0 0.0
3.700000047683716 0.0 0.0
3.5999999046325684 0.0 0.0
3.5 0.0 0.0
3.4000000953674316 0.0 0.0
3.299999952316284 0.0 0.0
3.200000047683716 0.0 0.0
3.0999999046325684 0.0 0.0
3.0 0.0 0.0
2.9000000953674316 0.0 0.0
2.799999952316284 0.0 0.0
2.700000047683716 0.0 0.0
2.5999999046325684 0.0 0.0
2.5 0.0 0.0
2.4000000953674316 0.0 0.0
2.299999952316284 0.0 0.0
2.200000047683716 0.0 0.0
2.0999999046325684 0.0 0.0
2.0 0.0 0.0
1.899999976158142 0.0 0.0
1.7999999523162842 0.0 0.0
1.7000000476837158 0.0 0.0
1.600000023841858 0.0 0.0
1.5 0.0 0.0
1.399999976158142 0.0 0.0
1.2999999523162842 0.0 0.0
1.2000000476837158 0.0 0.0
1.100000023841858 0.0 0.0
1.0 0.0 0.0
0.8999999761581421 0.0 0.0
0.800000011920929 0.0 0.0
0.699999988079071 0.0 0.0
0.6000000238418579 0.0 0.0
0.5 0.0 0.0
0.4000000059604645 0.0 0.0
0.30000001192092896 0.0 0.0
0.20000000298023224 0.0 0.0
0.10000000149011612 0.0 0.0
0.0 0.10000000149011612 0.0
0.0 0.20000000298023224 0.0
0.0 0.30000001192092896 0.0
0.0 0.4000000059604645 0.0
0.0 0.5 0.0
0.0 0.6000000238418579 0.0
0.0 0.699999988079071 0.0
0.0 0.800000011920929 0.0
0.0 0.8999999761581421 0.0
0.7496038675308228 0.5164291858673096 0.0
1.3451675176620483 0.5190238952636719 0.0
1.9462687969207764 0.4963642954826355 0.0
4.456614971160889 0.5060901641845703 0.0
3.864220380783081 0.4866538345813751 0.0
3.249823808670044 0.482722669839859 0.0
2.6500000953674316 0.5 0.0
0.3810288906097412 0.399004191160202 0.0
2.308779239654541 0.3797946870326996 0.0
1.0499999523162842 0.6625000238418579 0.0
1.644740104675293 0.6598879098892212 0.0
4.150000095367432 0.3375000059604645 0.0
3.555316209793091 0.3343118131160736 0.0
2.9446933269500732 0.3401789665222168 0.0
1.6342840194702148 0.3290160894393921 0.0
1.0591840744018555 0.33908534049987793 0.0
2.9654481410980225 0.6753292679786682 0.0
3.5534629821777344 0.6835107207298279 0.0
4.153462886810303 0.6835107207298279 0.0
2.2139804363250732 0.6805098056793213 0.0
0.4914395809173584 0.6739721894264221 0.0
4.691666603088379 0.6916666626930237 0.0
4.691666603088379 0.3083333373069763 0.0
2.4872219562530518 0.7236665487289429 0.0
0.6240421533584595 0.2677222192287445 0.0
2.0697431564331055 0.2657754421234131 0.0
2.5389034748077393 0.26082900166511536 0.0
0.8147311806678772 0.7450684309005737 0.0
1.2897310256958008 0.743314266204834 0.0
1.8853894472122192 0.7450258731842041 0.0
4.382374286651611 0.23655959963798523 0.0
3.910269021987915 0.25668570399284363 0.0
3.1838724613189697 0.25397706031799316 0.0
1.398239254951477 0.2614254057407379 0.0
3.201760768890381 0.7385746240615845 0.0
3.8017609119415283 0.7385746240615845 0.0
4.39177942276001 0.7466779351234436 0.0
0.25301694869995117 0.7458874583244324 0.0
2.7258167266845703 0.7600342631340027 0.0
0.84163498878479 0.2263137847185135 0.0
0.22429518401622772 0.22429518401622772 0.0
2.7605957984924316 0.22504857182502747 0.0
1.8330284357070923 0.2150011658668518 0.0
0.2192869633436203 0.5323538780212402 0.0
4.7908525466918945 0.5038931369781494 0.0
2.466000556945801 0.5376454591751099 0.0
3.7061264514923096 0.17723728716373444 0.0
3.3929696083068848 0.20266839861869812 0.0
1.4905184507369995 0.7937026619911194 0.0
1.2104878425598145 0.20361483097076416 0.0
3.9895122051239014 0.7963851690292358 0.0
3.389512300491333 0.7963851690292358 0.0
0.5652223825454712 0.5070380568504333 0.0
0.44509074091911316 0.19716571271419525 0.0
2.1318352222442627 0.5042122602462769 0.0
1.548349142074585 0.4954715371131897 0.0
3.050636053085327 0.5004673004150391 0.0
0.9511125087738037 0.498258113861084 0.0
3.651650905609131 0.5045284628868103 0.0
4.248488903045654 0.4980509281158447 0.0
1.1537858247756958 0.49593159556388855 0.0
4.050199031829834 0.49993085861206055 0.0
3.464722156524658 0.509624183177948 0.0
1.749653697013855 0.5001751780509949 0.0
2.851828098297119 0.5057260394096375 0.0
2.359710216522217 0.1888567954301834 0.0
2.0499017238616943 0.8199846148490906 0.0
0.6430503129959106 0.8181284070014954 0.0
4.560274600982666 0.1724673956632614 0.0
4.55863094329834 0.8299665451049805 0.0
2.321284055709839 0.8242537379264832 0.0
4.815218925476074 0.8345447778701782 0.0
4.837246894836426 0.16590170562267303 0.0
0.9682294130325317 0.8331464529037476 0.0
1.730908751487732 0.827606201171875 0.0
4.220076560974121 0.17516615986824036 0.0
3.02066969871521 0.18326662480831146 0.0
1.5634372234344482 0.17044226825237274 0.0
3.035303831100464 0.8294908404350281 0.0
3.627507209777832 0.8360387086868286 0.0
4.2312469482421875 0.8315803408622742 0.0
4.618130683898926 0.5361976027488708 0.0
0.40311703085899353 0.8369210362434387 0.0
1.1473191976547241 0.8458209037780762 0.0
4.052680969238281 0.15417908132076263 0.0
2.020958423614502 0.6394158005714417 0.0
0.662188708782196 0.6447370648384094 0.0
4.5115838050842285 0.3538685142993927 0.0
1.0221220254898071 0.15309639275074005 0.0
0.3837882876396179 0.5515117049217224 0.0
3.548090934753418 0.15800617635250092 0.0
1.4348299503326416 0.6465393304824829 0.0
3.765170097351074 0.3534606993198395 0.0
3.3348300457000732 0.3534606993198395 0.0
1.2546738386154175 0.36384353041648865 0.0
3.945326089859009 0.636156439781189 0.0
3.3412928581237793 0.637225866317749 0.0
2.1904795169830322 0.17066854238510132 0.0
0.16392111778259277 0.38331863284111023 0.0
2.87723445892334 0.8265392184257507 0.0
4.8459792137146 0.6499902606010437 0.0
4.845625400543213 0.34837812185287476 0.0
2.771622896194458 0.38129922747612 0.0
4.5222978591918945 0.6578375697135925 0.0
2.604464530944824 0.8240283727645874 0.0
1.8544400930404663 0.3751189708709717 0.0
0.8566747903823853 0.38255012035369873 0.0
2.2932615280151367 0.5369129776954651 0.0
2.620572805404663 0.6496497392654419 0.0
0.7172287106513977 0.1490369737148285 0.0
0.1410960853099823 0.8303417563438416 0.0
1.7142322063446045 0.142862930893898 0.0
2.6314175128936768 0.14492936432361603 0.0
1.9832650423049927 0.1408119648694992 0.0
2.445650577545166 0.370038241147995 0.0
2.885042667388916 0.1455758661031723 0.0
0.13937503099441528 0.6546638011932373 0.0
0.9110832810401917 0.6349053978919983 0.0
3.088575839996338 0.3613528311252594 0.0
4.296638011932373 0.3563385307788849 0.0
1.1930090188980103 0.6355591416358948 0.0
1.788455843925476 0.6387236714363098 0.0
4.006990909576416 0.3644408583641052 0.0
1.4459187984466553 0.39242905378341675 0.0
4.354081153869629 0.6075709462165833 0.0
3.7540812492370605 0.6075709462165833 0.0
3.1591691970825195 0.6018876433372498 0.0
2.7615907192230225 0.6205627918243408 0.0
2.36276912689209 0.6735464930534363 0.0
1.3681535720825195 0.8630191683769226 0.0
3.8318464756011963 0.1369808316230774 0.0
3.275517463684082 0.10712132602930069 0.0
0.5630941987037659 0.12814241647720337 0.0
1.3237862586975098 0.10638008266687393 0.0
3.2733232975006104 0.8705052733421326 0.0
3.8733232021331787 0.8705052733421326 0.0
2.0396511554718018 0.38928428292274475 0.0
2.2168734073638916 0.8508136868476868 0.0
0.5163488388061523 0.3409615159034729 0.0
0.6547463536262512 0.3955095112323761 0.0
1.9480526447296143 0.8710126876831055 0.0
4.689375877380371 0.13700176775455475 0.0
4.698264122009277 0.8675068616867065 0.0
0.7578787803649902 0.8698469996452332 0.0
2.479548454284668 0.13692785799503326 0.0
2.4562506675720215 0.8735422492027283 0.0
2.171211004257202 0.3573116958141327 0.0
3.5117530822753906 0.853193998336792 0.0
4.107914924621582 0.8658969402313232 0.0
2.640726327896118 0.354434996843338 0.0
4.346996307373047 0.1279495507478714 0.0
0.3128283619880676 0.11246757209300995 0.0
0.136248379945755 0.12152919173240662 0.0
4.453908443450928 0.8629162907600403 0.0
1.6064813137054443 0.8679171800613403 0.0
0.3380795121192932 0.6626779437065125 0.0
0.5102446675300598 0.875635027885437 0.0
0.7425088882446289 0.2989330589771271 0.0
3.1349449157714844 0.10448489338159561 0.0
1.3287748098373413 0.6181886196136475 0.0
3.871795415878296 0.38215625286102295 0.0
3.229135036468506 0.3810797333717346 0.0
0.28971707820892334 0.8759857416152954 0.0
0.9214505553245544 0.11992674320936203 0.0
1.9219478368759155 0.6237660050392151 0.0
1.530794620513916 0.29603153467178345 0.0
3.072223663330078 0.7044162750244141 0.0
3.6722235679626465 0.7044162750244141 0.0
[...]
POINT_DATA 715
SCALARS Psi double
LOOKUP_TABLE default
0.0
0.0
1.0
1.0
1.0
1.0
1.0
1.0
1.0
1.0
1.0
1.0
1.0
1.0
1.0
1.0
1.0
1.0
1.0
1.0
1.0
1.0
1.0
1.0
1.0
1.0
1.0
1.0
1.0
1.0
1.0
1.0
1.0
1.0
1.0
1.0
1.0
1.0
1.0
1.0
1.0
1.0
1.0
1.0
1.0
1.0
1.0
1.0
1.0
1.0
1.0
1.0
1.0
0.9187913205922965
0.8640348659153964
0.7623691729380441
0.6273722245443147
0.4726447801633951
0.3165086802694607
0.17856976816248504
0.07429372104919138
0.019706921315124092
0.0
0.0
0.0
0.0
0.0
0.0
0.0
0.0
0.0
0.0
0.0
0.0
0.0
0.0
0.0
0.0
0.0
0.0
0.0
0.0
0.0
0.0
0.0
0.0
0.0
0.0
0.0
0.0
0.0
0.0
0.0
0.0
0.0
0.0
0.0
0.0
0.0
0.0
0.0
0.0
0.0
0.0
-0.0
0.0
0.0
0.0
0.0
0.0
0.0
0.02734759334317116
0.10769105773950782
0.20922387196346875
0.31086458242550613
0.4124532360579279
0.5108072993795755
0.6026263703724887
0.6784398758696316
0.6416351587918959
0.5298825876723585
0.5426625136680074
0.5008561475194702
0.49406279315411994
0.468359409173792
0.4704415308903474
0.5121945102152273
0.3203628146143664
0.3119360699008949
0.7741885410888228
0.762766252385474
0.22954512024733967
0.22403985634513499
0.2482413605230922
0.2291752683429462
0.2550303868561969
0.7912684085033577
0.7875021160050374
0.7848908867148765
0.7964810066779698
0.7597879449114234
0.7833117002160147
0.1806966838002767
0.8537295054613173
0.15676578040113043
0.14713320666734994
0.14276662673461785
0.8814937207433486
0.8763398637468721
0.8739104002243576
0.09330838180164992
0.12364360836149023
0.12405654882766375
0.136348539120009
0.8672803159410586
0.8609025324225754
0.8665313265977674
0.793442366124729
0.8997199831853828
0.11054056222616546
0.11126653234224448
0.09806141932999564
0.08382751977680665
0.464546486345343
0.48128618308176135
0.5745528665058491
0.040316745020367736
0.06297940711633342
0.9284961994741457
0.0699517070393749
0.9244261739725826
0.9251493936984866
0.49533324501490267
0.071160820828881
0.5159726154647887
0.5003621345901789
0.5070198678956525
0.5096601731333026
0.4994435847046995
0.48441642780985056
0.5066077216995704
0.4895999757918941
0.5101780467425884
0.5067270555945921
0.5205472355765747
0.05858809777173968
0.9529202241516833
0.9590026753185348
0.037854431700389254
0.9526247188138104
0.9591366893869616
0.9411805774890634
0.029742887752003438
0.963906423964518
0.9558005309492864
0.041014215854961365
0.052877130961099084
0.041291880469058045
0.9649620031579785
0.9606647795051411
0.95735507363607
0.5401720124903672
0.9786627322228058
0.9708800711368234
0.030182923750676355
0.732562077456411
0.7343068441071188
0.2474423013560509
0.0367819512766455
0.5292278134210496
0.029120599335689164
0.7462283099381488
0.2522499980381232
0.2568158639723237
0.2875303102094278
0.7136958609459274
0.7211297724630741
0.045193737531666556
0.29478604534296265
0.9642561983233267
0.7122673436146484
0.23265099711569537
0.31529104895835935
0.7404254136079707
0.959748099730402
0.3011675397548158
0.3222174508415725
0.5717196367867239
0.754401329470006
0.037233996159467465
0.8225840801514054
0.02593472635837429
0.02786349718502948
0.025496568331187946
0.2979461426454382
0.026653994813180194
0.583783620861624
0.7313930210926641
0.2770895993585929
0.25476512954146685
0.7326930235756545
0.729909709054393
0.27089509598306705
0.33030227125772255
0.6643405398812953
0.6694213176255492
0.6716435281899763
0.709266588504153
0.7859311763979205
0.9790585027181238
0.017751918149267597
0.0017278121808684576
0.02125756584061299
0.0009965909070287211
0.9811656724230798
0.9820614723577913
0.3257605925752716
0.9759099096896487
0.249564795894874
0.33436603910709045
0.9851782204323911
0.02014776119096889
0.9784109187602236
0.984933600296501
0.023643563175047694
0.98413455928014
0.27636750803966353
0.969228729100177
0.9798602046875575
0.2743724177384947
0.005784651566002433
0.006014278589166945
0.022589649386788972
0.97700899550511
0.9809166581473872
0.694177570079234
0.9922277551241591
0.19989026850403968
0.0029664309339540213
0.703903425961673
0.29805384758769404
0.30375395792741283
1.0187626694328638
0.021811398549858006
0.7070430522203728
0.18270787644795025
0.8280803349207518
0.8153536344050586
0.8124302629708177
1.0059977947962424
0.6889878613452721
0.004079768172870943
0.9947191492480434
0.9943825527374409
0.1550450760015457
0.3276749272432416
0.1851581464899329
0.9958784627996037
0.00361312262387405
0.8679103029823365
0.294351109727966
0.1275337851820711
0.34092141395045533
0.011737444517975294
0.1619916765646446
0.9904999927546274
0.9901108446917029
0.1284191727985918
0.19226683187770832
-0.001627851596713583
0.4446809686429925
-0.003642501033909725
0.4047530317724341
0.19571323445241678
-0.003875025290050927
0.0006208251088605807
0.4104434590663039
0.42975399556919147
0.4136513902898592
0.5921193940711366
0.5888982133265631
0.003096116415399959
0.5526235891917247
0.0016061134846429438
0.6953861776428326
0.13178097505155265
0.6021003599153938
1.0012842320720607
0.8021925344391521
0.17356881267237553
0.8004551664496466
0.18312067810168597
0.20151105461812116
0.8139463901816899
0.9983910408977739
0.0015128839234180612
0.13261852784985273
0.8645730041802954
0.13426223240135693
0.33047529365213996
0.6174509670848268
0.8254418210943517
0.10978659683859594
0.4086579837373185
0.4166577256389279
0.611048639852852
0.5956055439957824
0.5901976837666207
0.020312288258346536
0.6538647311856303
0.13812183765757302
0.8637325295905082
0.8593639430461808
0.5949162941147886
0.4081289089051005
0.4239890442536034
0.003603083292878181
0.5877993946640007
0.8680114809769528
0.13557464317496817
1.0065899336531121
0.19877542488937194
0.5741582700942474
0.6578120714571578
0.40766577757848654
0.8607551969889238
0.5813004578802213
0.9994381670798581
0.4541630492362623
0.9881551011512532
0.9873289262379883
0.8940110613035372
0.8672392266130823
0.9581772197977464
0.006401006763376913
0.4239397270313429
0.7077460677498698
0.5762551847790063
0.681231301331782
0.3707172383232442
0.10600765108746142
-0.0013889285445250997
0.4404272331487695
0.21142737970709566
0.8386292207871299
0.5633328244826152
0.44026301456630845
0.44604632466350774
0.851242954891514
0.8764217380486381
0.1390625355698026
0.12445543441568398
0.8661880408732765
0.41286640992172835
0.9991339984029991
0.14232780427650543
0.90316378023443
0.9042145708946473
0.36083537998328025
0.9167070326558642
1.0040513373696012
0.11608773370331822
0.14558482174010814
0.6739319444201457
0.3250114444212098
0.6747681503851123
0.687824349536972
0.0856842895475533
0.6669176758696119
0.33475473008217543
0.33452666242919593
0.006509142736059768
0.4763498651275119
0.26329131158590874
0.73484364608051
0.7628052469031308
0.3408375036292467
0.8767653809455043
0.6637014583143886
0.6593385785832759
0.6336219517425412
0.007714506693581548
0.007539767340726469
0.13421319825427458
0.8211497471386939
-0.0031869341550399507
0.9159566441928982
0.9153221922895193
0.8456493336188987
-0.0035398797467078667
-0.0029598673435680444
0.19010490406853184
0.34351193332710883
-9.224100342854724e-06
1.0004751332562096
0.33685482209849626
0.8851049707754215
1.0002540463512153
0.8831930131207502
0.12140714604361043
1.0059749898560055
-0.001766598066759872
0.10542098086536146
0.9953849703395066
-0.0005706244109790002
0.3178320560840199
0.0006017356658044478
0.6890717444184379
0.0037139456137562964
1.0021421472919554
1.004594265360493
0.11237859464543062
0.4931333929456159
0.15379085483757193
0.9978461762360706
0.8858999211000236
0.9989225183926776
0.33200617543793154
0.9993545348200478
1.0028108476152802
0.13344588856883546
0.08862962909195869
6.97380678244122e-05
0.2833236934202135
0.649317022692082
0.5855616373219606
0.41229785771355354
0.5607042870872215
1.0040922053976111
0.25553247767050324
0.5703205565085555
1.0000086473917047
0.0002583059871132838
-0.001420238758631716
0.193613350749432
0.40711404993098077
0.5801729249932507
-0.0019149694532861466
0.9193260159499157
1.0054410644334224
0.8847636611137341
0.09159091613903714
0.9132045930604927
0.9061591363468169
0.6350207982952332
0.07962079781861177
0.8940697418436307
-0.0019017633285692964
0.2838627523728139
0.002591877762771941
0.9326190259550032
0.06798365031492996
-0.0015644778201116393
0.5861105043866718
0.5399305158257658
1.0043494297680056
1.0154580972567475
1.0015905124817817
0.0012861227758889872
0.4340536327126822
0.6797595936266874
0.6871687405268436
0.6788712864432209
0.3213131186395506
0.3172708645328717
0.33252528582809043
0.9437514607536933
1.035385731362108
0.9973777959816549
0.9946234228766381
0.9633314902982096
0.6846956344682218
0.756964374806167
-0.002135464905428072
0.06491221325804258
0.7904137787334317
0.7041613066339781
0.2356071502707422
0.8726659028546171
0.08667089424241123
0.07685841335761436
0.7181009892432608
0.6175183103541952
0.4343151846139859
0.9981903544486695
1.0013540065790734
0.7708819836196866
0.1002865490432512
0.9304067478790304
0.21604266634844851
0.9521526033019103
0.05491631019729246
1.0004153548330899
0.0021526010774599704
0.3694698640044428
0.6118414089393613
0.36525427738949345
0.833228795750093
0.04256469638974398
0.5918327885342335
0.37551090361122796
0.8360823893743355
-0.0012550204061328746
-0.0036730634658052866
0.1894422412059677
0.1768426415934694
0.056666263937465634
0.10639025540305276
0.9456630755028557
0.8408365778494229
0.161518741356132
0.8013304619751834
0.20622610445994405
0.9068339467146921
0.900845463986555
0.9005471322501749
-0.0048135252629084545
0.9400789212178079
0.35862617784684436
0.21988504075188295
1.0006057805756308
0.17126408144799699
0.5572825181029266
0.7118008866359256
0.6079500959410223
0.6409425888977508
0.043473856685769766
0.951383105486456
0.9502001003777756
0.05737908080646574
0.6962739982312292
-0.006290474348579217
1.006107304966361
1.0038740348184467
0.037582341813289094
0.044050451472677284
0.8934984073490984
0.25182669734363455
0.9470109747559509
0.4522930760780338
0.8593706107183983
-0.0003989596959528716
0.6427963914797485
0.3553173376809252
0.3662764854485982
1.0012497302136605
-0.0022002321267704985
0.5573292480910478
-0.007550681347964855
0.4133207568470693
0.06746560891564649
-0.001138206076180771
0.23667227906309546
0.6256177694399094
0.7203018232746687
0.7813932557128649
0.9496058578442339
0.04838699853527445
0.24486678588592498
0.18695206830798183
0.7696146016303558
1.0046681817153826
0.23302647845117128
0.07017260320873779
0.18774453549584696
0.054898439680213046
0.9288908003835867
0.047436317438126666
0.21075155674391616
0.7834280152574049
0.7875146997445627
0.7980725691911293
0.4075383143284864
1.0058836703346825
0.3719681617637867
0.9164862657040946
-0.0013328339392383079
0.05153224968286218
0.040985493895200314
0.5979934409555117
0.07170708322599027
0.0021008285194279567
0.059878001235008346
0.08157308189650989
0.41726629950168265
0.5605162273678271
0.030774226824964175
0.1983584976757353
-0.0018217294906431338
1.0001615937833783
0.9188423665877633
0.43373637769012885
0.5678632720337262
0.6249705635923503
0.9382904037158213
0.05184995052251765
0.05062451329485522
0.9982296682665963
0.03094097400873993
0.5060654753138963
0.32977859030520046
0.11863273595242382
-0.0009723638074164008
0.7913718410083728
0.9494087960325179
0.14546203155769943
0.1269508008403563
0.8520344856329513
1.001768404943394
0.04486993702164427
0.9423434988332566
0.9416435344949188
0.44578135909127437
0.44276252865547944
1.000905376375941
0.2140892264392103
0.33466721984472286
0.37590057697072815
0.0002704540275694232
0.966872755177633
0.9678413195136111
0.24453069612591039
0.5944085556721842
0.8290789217545889
0.8318996682910926
0.1894097111696081
0.8299701963327534
0.23653462355414676
0.8793094496273264
0.878056952554182
0.619407441746941
0.8931131530474705
0.617522376806316
0.05226517854757719
0.9504843735844452
0.3941643695862834
0.6227416492009271
0.37701212328270245
-0.007515851059758477
0.3126325433518291
0.056813477404911605
-0.000621351606905336
0.5659786839650018
0.11670918051285287
0.22033939897568894
0.08609161098300033
0.8001475313206395
0.873771639582642
0.9756394518723992
0.5842133919087767
0.003242465848180543
0.4065526870077076
0.07766249939404592
0.9992683053647087
1.0003018544319178
-0.0010619173958689183
0.05792408082721191
0.9447237184445074
0.00037966414275624876
-0.0045516747778314775
0.23544782072562653
0.7668774076079102
0.43683421226325
1.0029785696391966
0.2279912914963045
0.8174237033931242
0.19930315711286212
0.8073278111459388
0.19255822172287726
0.9787270251183027
0.0016860847411566146
0.41310405122763016
1.0008815571470575
0.9584366382081265
0.04427556570264563

SCALARS Omega double
LOOKUP_TABLE default
-7.676365505029865
-1.2013665499868817
8.54648445313575
15.920652452389703
36.51258266270492
-6.477620587874709
2.4233254913899396
-4.467030321831115
-0.4276101299999038
1.9257351310321846
0.05112486249463387
-0.6343444916561899
0.48011715210622585
1.139917132288069
0.19848417580216654
0.8258404813451153
0.5013619473450789
0.7921712350166681
1.5614999481312437
-0.11020854812204589
1.4316399518279646
1.263005827592365
-0.47739728699535755
0.4974832420613238
1.074328851365569
1.0491352604377122
0.7444371011216392
0.23236317284670172
0.4500241977909117
1.4136804571514716
1.105536565692996
0.13763306154875232
1.3347262433178864
0.8519993779143126
0.4196756229706257
1.1445431516881075
0.7604665605401163
0.3837478839525695
1.3447808564861197
0.6869264286708965
1.4156457839905585
0.7162871311911135
0.4283650137190599
0.3616135717999369
0.9666557431547725
0.7457830308563511
2.2014186583022237
0.47535118134781496
-0.507375302754491
2.2264727854082405
0.9058263076388051
1.92394493480766
9.625594985032103
-7.712826329146747
0.4928044665813417
2.680003394538726
1.5334244398062795
-0.08056424503791856
-0.9720936741061609
-2.461477728249393
-3.15459501797647
-1.678886475903523
-0.2834877815148475
-0.7083964460019921
-1.1008471908862594
-0.1033367494702413
-0.7386195200381911
-0.376440565612961
-1.0818658556289902
-0.8289601588766471
-0.30441656780370396
-0.7202351604234485
-0.4539601106596573
0.13063224274645097
-1.7889969106252777
-0.6408435436845155
0.41445942343280523
-1.5129597218929374
-0.5970340965785815
-0.2801116465974372
-1.139020813479765
-0.8218877694271389
-0.43092806709703724
-1.140904914338546
-0.9216915565043312
-1.4797955054289258
-0.13723481708617566
-0.5577071352234555
-1.0204672766355234
-1.1385192314947996
-0.7594211204038788
0.7278781780850577
-1.4396401781219847
-1.2605322988993606
0.2334486943792021
-0.8666298077492806
-1.125178191688214
-0.14024177260736517
-0.543933959625704
-1.520826932460263
-1.5269641562139582
-0.37518674601974733
-1.9041348357825785
-0.485197497937053
-2.0692558912205565
-0.49938742295667066
-0.14155191327190886
-2.06926810030223
-1.9113267773117242
-0.8189684701566455
0.7509919708146342
-4.592823925175833
2.6457866818110403
0.3120031811876151
-0.025403303257997764
-0.8569701085690576
1.6496825684549001
-5.888774541815156
-2.339370994023494
-42.60936650291189
-0.5160151853486802
0.49038347854789144
0.06219129394545844
-0.09222263264737136
-0.28659186293586025
-0.24308204195678065
0.18360396293341721
-0.3752571387931353
-1.6858853987145594
3.099506462514345
2.5612868538614655
-2.6614308808460145
-2.7368703868141866
-2.383152541226908
-2.6287194616485845
-2.0193809450349027
2.919698700484732
2.8587868054368624
2.7680525775037093
2.9303310621539813
2.3120203230456653
2.8639410090398423
-3.2248631012921356
3.850519845327623
-2.5887078261583305
-3.925239390563717
-3.9042949108494653
5.218466274939587
4.283109635205104
4.002096473531337
-4.685281081539277
-4.245278341510904
-4.199026599823328
-4.007649654975253
4.148124498845973
3.9240303375287406
4.161093162969258
1.9659766021934215
4.5602983933062955
-3.973121138004577
-1.7025715694056214
-4.62559791206991
-4.980268059277824
-1.420575250386658
-0.1711379882892736
0.7215964541936833
-6.330307711536253
-5.458981666170949
5.0261435744319325
-5.161913542836161
5.240628139077357
5.046467115736691
-1.2653795870989708
-4.898190265072826
0.18150404571314116
0.1252841201667651
0.1007749273379333
-0.17171899597995505
-0.013358891455944114
-0.17221607042463727
0.06775947050567627
-0.11537242382430968
0.08382071753808464
0.14807805135536192
0.23898945939277041
-5.663914007048277
5.451571934336223
7.333785092646905
-5.877700127061116
5.93492685676621
5.935150478538498
6.154955315699077
-5.53464973773393
5.682891571303577
5.352342175036406
-5.650490454075279
-5.519040078146083
-6.432569767053215
6.594582629568454
5.761686059562295
5.850698914547149
0.28446163022312326
13.255598393999247
5.684012353613899
-5.647412338430543
2.185045063550784
2.2621497595720577
-2.3409328580084625
-5.4578368609856875
-2.3399739431354836
-5.988266984356146
2.502436278878802
-2.3832471320970257
-2.3480899276103258
-1.8042011778691076
1.9179735766170019
2.103940857122168
-5.645976121878536
0.08697192354829814
6.128941707575682
1.7230724168899565
-2.144466264251619
-1.6247534405896122
2.208681594984499
5.665341726892251
-1.7852396776211308
-1.2674899138704447
0.665390849129376
2.494443122865467
-6.108957318717072
-1.869598120697123
-6.249978711146617
-6.256076197835628
-6.437715005980731
-1.8086185305526477
-6.319455397634861
-4.516473719481636
2.4770478259220576
-2.1063397794884913
-2.3290232953624312
2.496507406780688
2.18512620292169
-2.1709248061938937
-1.424901166724978
1.4088669064308086
1.5288881537089134
1.5852102004305095
2.008431706837137
2.909224699336694
5.860185693409865
-6.60240864577923
-7.604332775973479
-6.637432372965977
-8.433912064696367
6.427940689641457
7.0361897098328905
-1.5238032146983185
6.761516885663577
-0.9144402354734739
-1.009077186804896
6.750485306722942
-5.541954877466568
8.125874869284704
6.0108755359725174
-6.32689207294855
5.6535721137264385
-2.060742398431114
5.752740822915305
7.197823513559152
-2.0428897618205872
-8.568421452627144
-10.847890994491767
-8.804723090587293
6.733002886791723
5.949454950071974
-1.0378976662528292
7.108784098833791
-2.1714290188448477
-7.994247246898945
2.1166201378538823
-1.8819599420970086
-1.855645736974414
23.70910912574645
-6.2239371551986
1.9543661773191823
-3.3032664765980115
3.4808625281237937
3.192948190297426
3.151441457918179
7.587592464745553
1.621055959103052
-8.351638279974114
8.61104171443298
7.008241341614008
-1.4498839379663662
-1.5035599097532208
-3.2371951856478365
6.794587035897847
-6.801960346065894
4.021346271590614
-1.8857748596862771
-3.759816115519547
-0.4449573787355968
-6.464553691077576
3.2824899245666144
7.689572582108958
5.57518425056598
-4.108264875453375
-3.1605066915375764
-10.000960620517912
-0.393861248442758
-8.357217491847459
-1.406792897348308
-3.0263642590436923
-8.716260228915967
-7.919393911503438
-0.7982306266240244
-0.5540148233360038
-0.7756236471909173
0.763688981835926
0.8761630311869526
-7.440396939954944
1.3440317515594422
-9.344285100549355
1.8962180078862498
-4.013105019003471
-4.13138018966115
9.826915413373033
3.0423303067820555
-3.0751222919171592
3.0726759665463867
-3.2761027394096898
-3.0407303736184472
3.2042258733422897
6.723295981098027
-6.549215510377229
-4.090232238730207
4.01333926973641
-4.0185556407878495
-1.2748550495658333
0.9701846117713421
5.624968586088435
-9.23545033188818
-0.6853966109125651
-0.7162959991941621
1.0180843984765728
0.8526150843068484
0.7269094852814492
-6.706655940726955
-8.0218084331194
-3.8444802455116105
4.030995206731555
3.8880858995491776
0.9546260872659801
-0.8155079408425786
-0.6398143418684581
-9.125822213862442
0.8160606896707404
4.371146502257028
-3.9353650586639906
9.55857674861747
-2.9889171341316754
-0.44383625595965565
0.20085001088767615
-0.8029437271523655
3.8435768233934375
0.2359023361884823
8.623696652382241
-0.3276423163188744
6.811662592219234
6.319544901897496
4.411883973037748
5.496578841031019
2.963369706905413
-7.922408835160576
-1.2879072968313794
1.9453672774697337
0.6962056579716983
1.6559002930932034
-1.8071616900714056
-4.503825350702245
-10.000782529019672
-0.5465101646041047
0.7361967623980188
3.514347963403607
0.6767677475711432
-0.5362458272913442
-0.46934159708362544
5.481701248270905
4.90598667743904
-3.9421843436180355
-4.016889415013594