# vtk DataFile Version 1.0
2D Simulation C++
ASCII
DATASET UNSTRUCTURED_GRID
FIELD FieldData 1
NODES 1 2 int
715 1308

POINTS 715 double
0.0 0.0 0.0
5.0 0.0 0.0
5.0 1.0 0.0
0.0 1.0 0.0
0.10000000149011612 1.0 0.0
0.20000000298023224 1.0 0.0
0.30000001192092896 1.0 0.0
0.4000000059604645 1.0 0.0
0.5 1.0 0.0
0.6000000238418579 1.0 0.0
0.699999988079071 1.0 0.0
0.800000011920929 1.0 0.0
0.8999999761581421 1.0 0.0
1.0 1.0 0.0
1.100000023841858 1.0 0.0
1.2000000476837158 1.0 0.0
1.2999999523162842 1.0 0.0
1.399999976158142 1.0 0.0
1.5 1.0 0.0
1.600000023841858 1.0 0.0
1.7000000476837158 1.0 0.0
1.7999999523162842 1.0 0.0
1.899999976158142 1.0 0.0
2.0 1.0 0.0
2.0999999046325684 1.0 0.0
2.200000047683716 1.0 0.0
2.299999952316284 1.0 0.0
2.4000000953674316 1.0 0.0
2.5 1.0 0.0
2.5999999046325684 1.0 0.0
2.700000047683716 1.0 0.0
2.799999952316284 1.0 0.0
2.9000000953674316 1.0 0.0
3.0 1.0 0.0
3.0999999046325684 1.0 0.0
3.200000047683716 1.0 0.0
3.299999952316284 1.0 0.0
3.4000000953674316 1.0 0.0
3.5 1.0 0.0
3.5999999046325684 1.0 0.0
3.700000047683716 1.0 0.0
3.799999952316284 1.0 0.0
3.9000000953674316 1.0 0.0
4.0 1.0 0.0
4.099999904632568 1.0 0.0
4.199999809265137 1.0 0.0
4.300000190734863 1.0 0.0
4.400000095367432 1.0 0.0
4.5 1.0 0.0
4.599999904632568 1.0 0.0
4.699999809265137 1.0 0.0
4.800000190734863 1.0 0.0
4.900000095367432 1.0 0.0
5.0 0.8999999761581421 0.0
5.0 0.800000011920929 0.0
5.0 0.699999988079071 0.0
5.0 0.6000000238418579 0.0
5.0 0.5 0.0
5.0 0.4000000059604645 0.0
5.0 0.30000001192092896 0.0
5.0 0.20000000298023224 0.0
5.0 0.10000000149011612 0.0
4.900000095367432 0.0 0.0
4.800000190734863 0.0 0.0
4.699999809265137 0.0 0.0
4.599999904632568 0.0 0.0
4.5 0.0 0.0
4.400000095367432 0.0 0.0
4.300000190734863 0.0 0.0
4.199999809265137 0.0 0.0
4.099999904632568 0.0 0.0
4.0 0.0 0.0
3.9000000953674316 0.0 0.0
3.799999952316284 0.0 0.0
3.700000047683716 0.0 0.0
3.5999999046325684 0.0 0.0
3.5 0.0 0.0
3.4000000953674316 0.0 0.0
3.299999952316284 0.0 0.0
3.200000047683716 0.0 0.0
3.0999999046325684 0.0 0.0
3.0 0.0 0.0
2.9000000953674316 0.0 0.0
2.799999952316284 0.0 0.0
2.700000047683716 0.0 0.0
2.5999999046325684 0.0 0.0
2.5 0.0 0.0
2.4000000953674316 0.0 0.0
2.299999952316284 0.0 0.0
2.200000047683716 0.0 0.0
2.0999999046325684 0.0 0.0
2.0 0.0 0.0
1.899999976158142 0.0 0.0
1.7999999523162842 0.0 0.0
1.7000000476837158 0.0 0.0
1.600000023841858 0.0 0.0
1.5 0.0 0.0
1.399999976158142 0.0 0.0
1.2999999523162842 0.0 0.0
1.2000000476837158 0.0 0.0
1.100000023841858 0.0 0.0
1.0 0.0 0.0
0.8999999761581421 0.0 0.0
0.800000011920929 0.0 0.0
0.699999988079071 0.0 0.0
0.6000000238418579 0.0 0.0
0.5 0.0 0.0
0.4000000059604645 0.0 0.0
0.30000001192092896 0.0 0.0
0.20000000298023224 0.0 0.0
0.10000000149011612 0.0 0.0
0.0 0.10000000149011612 0.0
0.0 0.20000000298023224 0.0
0.0 0.30000001192092896 0.0
0.0 0.4000000059604645 0.0
0.0 0.5 0.0
0.0 0.6000000238418579 0.0
0.0 0.699999988079071 0.0
0.0 0.800000011920929 0.0
0.0 0.8999999761581421 0.0
0.7496038675308228 0.5164291858673096 0.0
1.3451675176620483 0.5190238952636719 0.0
1.9462687969207764 0.4963642954826355 0.0
4.456614971160889 0.5060901641845703 0.0
3.864220380783081 0.4866538345813751 0.0
3.249823808670044 0.482722669839859 0.0
2.6500000953674316 0.5 0.0
0.3810288906097412 0.399004191160202 0.0
2.308779239654541 0.3797946870326996 0.0
1.0499999523162842 0.6625000238418579 0.0
1.644740104675293 0.6598879098892212 0.0
4.150000095367432 0.3375000059604645 0.0
3.555316209793091 0.3343118131160736 0.0
2.9446933269500732 0.3401789665222168 0.0
1.6342840194702148 0.3290160894393921 0.0
1.0591840744018555 0.33908534049987793 0.0
2.9654481410980225 0.6753292679786682 0.0
3.5534629821777344 0.6835107207298279 0.0
4.153462886810303 0.6835107207298279 0.0
2.2139804363250732 0.6805098056793213 0.0
0.4914395809173584 0.6739721894264221 0.0
4.691666603088379 0.6916666626930237 0.0
4.691666603088379 0.3083333373069763 0.0
2.4872219562530518 0.7236665487289429 0.0
0.6240421533584595 0.2677222192287445 0.0
2.0697431564331055 0.2657754421234131 0.0
2.5389034748077393 0.26082900166511536 0.0
0.8147311806678772 0.7450684309005737 0.0
1.2897310256958008 0.743314266204834 0.0
1.8853894472122192 0.7450258731842041 0.0
4.382374286651611 0.23655959963798523 0.0
3.910269021987915 0.25668570399284363 0.0
3.1838724613189697 0.25397706031799316 0.0
1.398239254951477 0.2614254057407379 0.0
3.201760768890381 0.7385746240615845 0.0
3.8017609119415283 0.7385746240615845 0.0
4.39177942276001 0.7466779351234436 0.0
0.25301694869995117 0.7458874583244324 0.0
2.7258167266845703 0.7600342631340027 0.0
0.84163498878479 0.2263137847185135 0.0
0.22429518401622772 0.22429518401622772 0.0
2.7605957984924316 0.22504857182502747 0.0
1.8330284357070923 0.2150011658668518 0.0
0.2192869633436203 0.5323538780212402 0.0
4.7908525466918945 0.5038931369781494 0.0
2.466000556945801 0.5376454591751099 0.0
3.7061264514923096 0.17723728716373444 0.0
3.3929696083068848 0.20266839861869812 0.0
1.4905184507369995 0.7937026619911194 0.0
1.2104878425598145 0.20361483097076416 0.0
3.9895122051239014 0.7963851690292358 0.0
3.389512300491333 0.7963851690292358 0.0
0.5652223825454712 0.5070380568504333 0.0
0.44509074091911316 0.19716571271419525 0.0
2.1318352222442627 0.5042122602462769 0.0
1.548349142074585 0.4954715371131897 0.0
3.050636053085327 0.5004673004150391 0.0
0.9511125087738037 0.498258113861084 0.0
3.651650905609131 0.5045284628868103 0.0
4.248488903045654 0.4980509281158447 0.0
1.1537858247756958 0.49593159556388855 0.0
4.050199031829834 0.49993085861206055 0.0
3.464722156524658 0.509624183177948 0.0
1.749653697013855 0.5001751780509949 0.0
2.851828098297119 0.5057260394096375 0.0
2.359710216522217 0.1888567954301834 0.0
2.0499017238616943 0.8199846148490906 0.0
0.6430503129959106 0.8181284070014954 0.0
4.560274600982666 0.1724673956632614 0.0
4.55863094329834 0.8299665451049805 0.0
2.321284055709839 0.8242537379264832 0.0
4.815218925476074 0.8345447778701782 0.0
4.837246894836426 0.16590170562267303 0.0
0.9682294130325317 0.8331464529037476 0.0
1.730908751487732 0.827606201171875 0.0
4.220076560974121 0.17516615986824036 0.0
3.02066969871521 0.18326662480831146 0.0
1.5634372234344482 0.17044226825237274 0.0
3.035303831100464 0.8294908404350281 0.0
3.627507209777832 0.8360387086868286 0.0
4.2312469482421875 0.8315803408622742 0.0
4.618130683898926 0.5361976027488708 0.0
0.40311703085899353 0.8369210362434387 0.0
1.1473191976547241 0.8458209037780762 0.0
4.052680969238281 0.15417908132076263 0.0
2.020958423614502 0.6394158005714417 0.0
0.662188708782196 0.6447370648384094 0.0
4.5115838050842285 0.3538685142993927 0.0
1.0221220254898071 0.15309639275074005 0.0
0.3837882876396179 0.5515117049217224 0.0
3.548090934753418 0.15800617635250092 0.0
1.4348299503326416 0.6465393304824829 0.0
3.765170097351074 0.3534606993198395 0.0
3.3348300457000732 0.3534606993198395 0.0
1.2546738386154175 0.36384353041648865 0.0
3.945326089859009 0.636156439781189 0.0
3.3412928581237793 0.637225866317749 0.0
2.1904795169830322 0.17066854238510132 0.0
0.16392111778259277 0.38331863284111023 0.0
2.87723445892334 0.8265392184257507 0.0
4.8459792137146 0.6499902606010437 0.0
4.845625400543213 0.34837812185287476 0.0
2.771622896194458 0.38129922747612 0.0
4.5222978591918945 0.6578375697135925 0.0
2.604464530944824 0.8240283727645874 0.0
1.8544400930404663 0.3751189708709717 0.0
0.8566747903823853 0.38255012035369873 0.0
2.2932615280151367 0.5369129776954651 0.0
2.620572805404663 0.6496497392654419 0.0
0.7172287106513977 0.1490369737148285 0.0
0.1410960853099823 0.8303417563438416 0.0
1.7142322063446045 0.142862930893898 0.0
2.6314175128936768 0.14492936432361603 0.0
1.9832650423049927 0.1408119648694992 0.0
2.445650577545166 0.370038241147995 0.0
2.885042667388916 0.1455758661031723 0.0
0.13937503099441528 0.6546638011932373 0.0
0.9110832810401917 0.6349053978919983 0.0
3.088575839996338 0.3613528311252594 0.0
4.296638011932373 0.3563385307788849 0.0
1.1930090188980103 0.6355591416358948 0.0
1.788455843925476 0.6387236714363098 0.0
4.006990909576416 0.3644408583641052 0.0
1.4459187984466553 0.39242905378341675 0.0
4.354081153869629 0.6075709462165833 0.0
3.7540812492370605 0.6075709462165833 0.0
3.1591691970825195 0.6018876433372498 0.0
2.7615907192230225 0.6205627918243408 0.0
2.36276912689209 0.6735464930534363 0.0
1.3681535720825195 0.8630191683769226 0.0
3.8318464756011963 0.1369808316230774 0.0
3.275517463684082 0.10712132602930069 0.0
0.5630941987037659 0.12814241647720337 0.0
1.3237862586975098 0.10638008266687393 0.0
3.2733232975006104 0.8705052733421326 0.0
3.8733232021331787 0.8705052733421326 0.0
2.0396511554718018 0.38928428292274475 0.0
2.2168734073638916 0.8508136868476868 0.0
0.5163488388061523 0.3409615159034729 0.0
0.6547463536262512 0.3955095112323761 0.0
1.9480526447296143 0.8710126876831055 0.0
4.689375877380371 0.13700176775455475 0.0
4.698264122009277 0.8675068616867065 0.0
0.7578787803649902 0.8698469996452332 0.0
2.479548454284668 0.13692785799503326 0.0
2.4562506675720215 0.8735422492027283 0.0
2.171211004257202 0.3573116958141327 0.0
3.5117530822753906 0.853193998336792 0.0
4.107914924621582 0.8658969402313232 0.0
2.640726327896118 0.354434996843338 0.0
4.346996307373047 0.1279495507478714 0.0
0.3128283619880676 0.11246757209300995 0.0
0.136248379945755 0.12152919173240662 0.0
4.453908443450928 0.8629162907600403 0.0
1.6064813137054443 0.8679171800613403 0.0
0.3380795121192932 0.6626779437065125 0.0
0.5102446675300598 0.875635027885437 0.0
0.7425088882446289 0.2989330589771271 0.0
3.1349449157714844 0.10448489338159561 0.0
1.3287748098373413 0.6181886196136475 0.0
3.871795415878296 0.38215625286102295 0.0
3.229135036468506 0.3810797333717346 0.0
0.28971707820892334 0.8759857416152954 0.0
0.9214505553245544 0.11992674320936203 0.0
1.9219478368759155 0.6237660050392151 0.0
1.530794620513916 0.29603153467178345 0.0
3.072223663330078 0.7044162750244141 0.0
3.6722235679626465 0.7044162750244141 0.0
[...]
POINT_DATA 715
SCALARS Psi double
LOOKUP_TABLE default
0.0
0.0
1.0
1.0
1.0
1.0
1.0
1.0
1.0
1.0
1.0
1.0
1.0
1.0
1.0
1.0
1.0
1.0
1.0
1.0
1.0
1.0
1.0
1.0
1.0
1.0
1.0
1.0
1.0
1.0
1.0
1.0
1.0
1.0
1.0
1.0
1.0
1.0
1.0
1.0
1.0
1.0
1.0
1.0
1.0
1.0
1.0
1.0
1.0
1.0
1.0
1.0
1.0
0.919339410479792
0.8658612880922149
0.7647846398603272
0.6282839118124723
0.47056766407996375
0.3117509162490354
0.17334296394396514
0.07095717953577022
0.018665443741142616
0.0
0.0
0.0
0.0
0.0
0.0
0.0
0.0
0.0
0.0
0.0
0.0
0.0
0.0
0.0
0.0
0.0
0.0
0.0
0.0
0.0
0.0
0.0
0.0
0.0
0.0
0.0
0.0
0.0
0.0
0.0
0.0
0.0
0.0
0.0
0.0
0.0
0.0
0.0
0.0
0.0
0.0
-0.0
0.0
0.0
0.0
0.0
0.0
0.0
0.027349011295210866
0.1076948906784937
0.20923053415925363
0.3108739473881205
0.41246456316453467
0.5108191761235913
0.6026380492534388
0.6784509075278935
0.6416408905677848
0.530065159879828
0.5436054294949746
0.500815384885482
0.49399232839334145
0.46955441110017654
0.4712979604941133
0.5093530582065777
0.3204063048007237
0.30701204173239904
0.7747526659543444
0.7664322324012317
0.226672864867646
0.22286656290131127
0.24459791926681024
0.227102335358387
0.2548631268424523
0.7932411498985951
0.791950638817896
0.7892364484466359
0.798027760920412
0.759886676868219
0.7865133503815396
0.17593146808173504
0.8543370724039517
0.15684037564433445
0.1435671782521427
0.1385070695109055
0.8816116619303239
0.8776386661546578
0.8764417804642046
0.09088725589414887
0.12167784709275672
0.12245044013347689
0.13537668512250636
0.8699596025816644
0.8644574829921419
0.869562094932548
0.7934738850385586
0.9003876230037974
0.11060223225076014
0.11127154721605187
0.09505677925921863
0.08190386356694028
0.46456878739231294
0.47947166016817755
0.5725691668752222
0.03981602195783889
0.06237489514261866
0.929961975861139
0.06977859557870843
0.9267500420038881
0.9273045816523737
0.49545685052344624
0.07117598168955533
0.5149436618521267
0.501293261226148
0.5068639941483135
0.5098794668159645
0.5016111779668945
0.48486905846618156
0.506948046178444
0.4906722257752765
0.51246140271119
0.5076360404163955
0.5189835194636552
0.05663012154789211
0.9537583353414483
0.9590472999513846
0.0365567806764322
0.9538571171449002
0.9594343286889383
0.9426101040859638
0.02795370500857274
0.9639145525039221
0.9568914217769517
0.039985430590916915
0.05170116144933437
0.04068845574937273
0.9655307586268571
0.9618199853229646
0.9586666611734531
0.5403925243378793
0.9786722301374224
0.9709323973686133
0.029514593653031388
0.7351145163672098
0.7344579860111553
0.243379984565402
0.03679845171265825
0.529290419037784
0.028875173734840397
0.7489663044517144
0.25073721011260763
0.25560273681897266
0.2870029640556476
0.7181034721673372
0.725129163020462
0.04368517497969585
0.29479714869175205
0.9645639210673551
0.7150866552588567
0.226593483891399
0.3106971805336805
0.7439154412530994
0.9599170923499704
0.2985942203030956
0.3223195917813198
0.5704536498230438
0.7547585245726175
0.03726399543098515
0.8225968248915851
0.02538296921271596
0.026791193850741826
0.02473961735195197
0.2925816917618104
0.02591600646292268
0.5837993013178268
0.7316868995792427
0.27471112479888843
0.25162957577062073
0.7338227651773089
0.7333876681180299
0.2687165888521557
0.32949871529710645
0.6675427458715429
0.6735853902647704
0.6743483739808704
0.7096464916500681
0.7866192948168227
0.9792006250684551
0.017530483503262417
0.0018533502574161148
0.02126330320721706
0.0011100486612807417
0.9816089118649988
0.9825688375593113
0.3224098616217874
0.9761168776983759
0.24963633045359998
0.3344908641373305
0.9853721990178214
0.01948913577276673
0.9789713103281018
0.9849572600753641
0.022864923232161376
0.9841744033528294
0.2718757874432657
0.9701357123344311
0.9805319452651325
0.2690825476533179
0.005702642799290816
0.006011473910571487
0.022590015942400888
0.977573491246062
0.9812446428149356
0.6942342823917855
0.9922282848285572
0.19998855200670748
0.0030308637591403304
0.7057467929601678
0.29661904439306713
0.30249278253718426
1.018756987293386
0.021838254768447016
0.7099005885188169
0.18109661880001113
0.8305057086546531
0.8194739998829353
0.8162746978287989
1.0057503644408923
0.6891886306171052
0.004116343595046665
0.9948056927741059
0.9943973809514095
0.15506252200180135
0.3234119069522269
0.18174076879362627
0.99576095480164
0.0036435099230687283
0.8692006799764146
0.29117967375189907
0.12750885562505965
0.3409448100742606
0.011407664045582798
0.16199704043248137
0.9905804778976336
0.990114191930306
0.12467412320451769
0.18961476104476802
-0.001530771021191414
0.4406047238938431
-0.003429032564433093
0.4047659571004062
0.19152261010256413
-0.0037150569270807945
0.0007688158565848188
0.40973960353846667
0.42761359646825126
0.4145546121356401
0.5925466894583319
0.5911680108193272
0.0031032118270848505
0.5523017226311726
0.0016099512021674016
0.6950085116955789
0.12767154290912036
0.6021286382367806
1.0011100216407263
0.8064423904140088
0.17323273586451143
0.8046436025883841
0.18186911503533992
0.20015588383978627
0.8171863882766922
0.9983438040472484
0.0016167843783451647
0.1308726624163407
0.8665536498096604
0.1328708247491333
0.3305020905104755
0.6189131509386406
0.8287184949686541
0.10440794707082121
0.4082377848470783
0.4167215862672555
0.6116185459996726
0.5991598009996342
0.5928591525951137
0.020350005230801323
0.6538770115428394
0.13743981968312557
0.8668764886677705
0.8630690244175954
0.5958770088805693
0.40796696583293285
0.4234560934294713
0.0037778897175288883
0.5897445206712693
0.8686892103476263
0.1329834505033809
1.0063277374175847
0.1937421762342785
0.5743178347681112
0.6579445091062116
0.40542314446835953
0.8630034502423717
0.5815322713028909
0.9992081368962928
0.4506541686199108
0.9884598300723673
0.9876487220260296
0.8965078939485995
0.8673469525574553
0.9584996126632586
0.0058912602526384255
0.42401631535187023
0.7086801351569136
0.576890777515064
0.6826912496964466
0.36604952977522986
0.10347813118012694
-0.0013924571905911975
0.43963997159444695
0.21144082956338098
0.8406814516826245
0.5648123184284235
0.4412635671209501
0.4470675791478458
0.8513438327807958
0.8765943282538978
0.13692090165372603
0.12169950295299505
0.8690790075791606
0.40939458979802296
0.9990803553783306
0.14238013322731968
0.9058721533997766
0.9069360735815319
0.3570824784383391
0.9178325136856181
1.004049314593362
0.11297865262891145
0.14169887055305094
0.6775168892009888
0.3238858473177414
0.6790871179564949
0.6899913607593244
0.08415355126187835
0.6698106628537877
0.334460210487689
0.3343093137316124
0.0065072784910124035
0.4733902947874467
0.2623935166919265
0.7393532179126555
0.7663287082471681
0.33921606384097996
0.8773680525977858
0.6677498942423236
0.6631572680783089
0.6361793574289955
0.007580631992639831
0.0074424442706206295
0.12951848563148444
0.8243087690641476
-0.00305570919020778
0.916010189726482
0.9161379410011623
0.8487213083179537
-0.00336126269610856
-0.002752846235397716
0.19014160751494982
0.34084622495769673
0.0002714930354296923
1.0004292560731785
0.33699016110127633
0.8878512503246789
1.0001730754226437
0.8834762981269725
0.11890295036668164
1.0057883106339076
-0.0014286541375006932
0.10202786590366272
0.9955175723370482
-0.00043445136671651
0.3175310636846378
0.0005936679857652698
0.6918576966103764
0.0036558422243166107
1.0019618725215014
1.0043975336173632
0.11138574963349566
0.4931459599223908
0.14976059299699068
0.997771683996913
0.8865647474219759
0.9988944955756806
0.3272977919060239
0.9993696792909865
1.0027988220326083
0.1333143944814431
0.08764026698453495
7.499734208941116e-05
0.27905742164407776
0.6487506313391983
0.5856619845895302
0.41224488996685743
0.5632956783011729
1.0040006460165005
0.2555404634361001
0.5715344167204411
0.9999249831777023
0.0003568005487887287
-0.0013180833723309667
0.19363854859389384
0.4071584689191245
0.5782619161935998
-0.0018066487847409897
0.9215943541120841
1.005184592093866
0.8847988520604662
0.09058157978008229
0.91494230171893
0.9088531549586178
0.6342432593821957
0.07697842437043692
0.8964148877142946
-0.0018963805421228891
0.2782288529987107
0.002623754589621604
0.9331350608778435
0.06659796470660435
-0.0014737337605427512
0.5889299686028356
0.539968973769464
1.0042310106942605
1.015445897844945
1.0014783341408995
0.0013030405373190559
0.43341283897541505
0.6801536253590372
0.6879368003572789
0.6821823596774735
0.319060470931869
0.31527246505329215
0.3299004761756695
0.9440449090641693
1.035379680247611
0.9974015743390001
0.9947521770318783
0.9634729049652763
0.6847768771054192
0.7573189548806072
-0.0019669323990017407
0.06494668947791749
0.7911663738572757
0.7066958793317287
0.22949245720569128
0.8726695110557605
0.08425558752541823
0.07529181759655161
0.7186870434228225
0.6210782431866891
0.4344753365390082
0.9980691240543695
1.0012031962004684
0.7746132801374523
0.10035610059964235
0.9313795935258545
0.21117611180711257
0.9524900675506611
0.0529193124183933
1.0003359604530286
0.0021539548368042535
0.36616282004149914
0.6129385632159031
0.36057890677148874
0.8332930500816332
0.04131463172084748
0.5915126274179587
0.37552782603892304
0.8394480458838743
-0.0011522163189432808
-0.003503229736511778
0.18944933010008286
0.17393694327359305
0.056137403317228524
0.10359790151506608
0.9457115187240703
0.8419616920616521
0.1591444883348627
0.8016779330841272
0.20316451972780045
0.9068481380627293
0.903711614673299
0.903330645646022
-0.004620344135813581
0.9414285794379214
0.3587314652853807
0.21604825974661132
1.000455593198346
0.16832673990411648
0.5588622957106862
0.7144775396235921
0.6114004172626201
0.6411207052346515
0.04318100568105439
0.9525882435549652
0.9517484519182472
0.055094424417506886
0.6962950686325151
-0.0061466144899771195
1.0058181368152432
1.0036556914659862
0.03710880387968706
0.04121278708318461
0.8951744238199546
0.2519211185936569
0.9483364518405683
0.4502297257001447
0.8603282531931297
-0.0003982648451378182
0.6446624840202545
0.3548831209097978
0.3660042122530445
1.0011001043853296
-0.002077329726630534
0.5573407698534052
-0.007555581049909698
0.4132234928020054
0.06739094937359569
-0.0011413589671634124
0.23460523495564817
0.6273491936774961
0.7203129130849493
0.7847909098664805
0.9501470990000415
0.04748212922698678
0.2406414568224527
0.1835732196468686
0.7698310438141447
1.0044533568127516
0.23313165189822047
0.06801386778547465
0.1840610335017783
0.05318387274000742
0.930525566450954
0.046217180819973454
0.20942534850770286
0.7873123750727196
0.7918872818719076
0.8010776911357671
0.40767029594384835
1.0058770099089804
0.36955281875121565
0.9181729027924445
-0.0012138115771848606
0.050644681294001195
0.03951772586610496
0.5971155631646211
0.06979810163299126
0.0020968573066326972
0.059880538725133124
0.08157827339832593
0.4128569177951143
0.5619915052698824
0.029802297857521844
0.1933094243152149
-0.0018223329489008577
1.0000643057661858
0.9189215134107591
0.4338320607674587
0.5709237142495386
0.627809709873395
0.9393325096121741
0.05108667774639725
0.05010052329080704
0.9982438310198108
0.030234639637774268
0.5060822876033945
0.3247521664836877
0.11870433741604436
-0.000823255903302437
0.7918133234957674
0.9494508687678912
0.1442272187950709
0.12549895167776523
0.8545388195480718
1.0017333842953993
0.04472071416022652
0.9439048926625392
0.9434260560347412
0.4442505946935886
0.4429114891914714
1.000790704433601
0.21417527814114679
0.33467734716132164
0.3742363207443686
0.0002619059050756663
0.967917559559514
0.9688028136831399
0.24455611858370022
0.5977628001228747
0.8330220920786692
0.835507952500753
0.18890068557834894
0.8310459082624398
0.2316367682568673
0.8825343176234685
0.8812280510076276
0.6196918998027059
0.8947485671301592
0.6199816788814451
0.0510296846365251
0.95059153490342
0.39277207427004834
0.6235482661255753
0.3761741266829468
-0.007176185568561472
0.31269783545409235
0.05683205085574981
-0.00047744582012965566
0.5677377404925336
0.1151941498326157
0.22028368554912447
0.08609455365742426
0.8003056513940224
0.8744669040704628
0.9760458024984664
0.5856088808061775
0.0032580492732544705
0.403927467792528
0.0777005142403361
0.9992054290550598
1.0002021875681018
-0.0009563633848373049
0.05792931282138335
0.9461956673016942
0.000405968806237518
-0.00416228089813068
0.23320916697761873
0.7684476241384436
0.4368653374141997
1.0028120466473573
0.22271777952789887
0.8203374284167935
0.19760818729076185
0.8093030882256561
0.19050802382988558
0.9787042222037102
0.001622756066686342
0.40867206878518214
1.0008861838382799
0.9586649325954761
0.0431824458151221

SCALARS Omega double
LOOKUP_TABLE default
-7.676494696323736
-1.1819183052436422
8.575799437818121
15.920184427414787
36.51090413029053
-6.477768741916342
2.4232792899949853
-4.464750992097768
-0.4278466290133533
1.9233693960157074
0.04812057940435665
-0.6371276997515064
0.48507485137408257
1.1458491839761258
0.23190600158248584
0.8260821906916406
0.5466187145211369
0.7955056361325672
1.555271328736356
-0.0898335770801771
1.4118834987657918
1.2427350126916952
-0.41623792231077483
0.4879493813443841
1.065735539968462
1.0378933027543367
0.7603806917636612
0.2391267951166881
0.4604025458823777
1.4220346035528824
1.1090109644779496
0.1625380574321228
1.3308833134038338
0.8609967491139158
0.41605049503098207
1.1175281521547196
0.7532990319037997
0.37793738151189865
1.310879597850977
0.6758299227852553
1.3788824582102697
0.6960956913035933
0.43349924445672944
0.3526270933377247
0.9428494720545884
0.725638055903864
2.12812275644669
0.46526927492491693
-0.4676216779455444
2.164195654433007
0.8721518040989196
1.865707509169982
9.58496189837392
-7.827778835870119
0.5630935405276707
2.845917015517308
1.6277390865612238
-0.10349502515706598
-1.1402845350575632
-2.627049605357888
-3.2866793059818176
-1.5625328001553456
-0.2542876240622219
-0.6548365405695278
-1.0581861111305462
-0.13121454508508662
-0.7052733918258062
-0.37954734305762716
-1.0649029950149584
-0.8159622814112559
-0.30972106212116823
-0.7185102020115369
-0.4576947456696625
0.09819288610713514
-1.7668535860363699
-0.6479487933158985
0.388056555346697
-1.4949333940788845
-0.5996434851977821
-0.29783156871363453
-1.1119726693483976
-0.8086910352371879
-0.42488923356340214
-1.1064173391007763
-0.8891195543752279
-1.420858838984264
-0.16624026587020607
-0.5577677975455119
-0.972309339205209
-1.0875022050826362
-0.743311843909863
0.6911631988086481
-1.3984694888453943
-1.227603382024494
0.2080275731386539
-0.8520724833541653
-1.1186193969082079
-0.16250186043437473
-0.5573903296268464
-1.5265040884971994
-1.5310063824371167
-0.39355032557552316
-1.9063006817510655
-0.4859985316622886
-2.072276408599885
-0.4988240159642032
-0.13996250744328012
-2.069519075647041
-1.910959560479627
-0.8190374029212026
0.7511215264477633
-4.592709750395731
2.6458085824341424
0.3120414680051451
-0.025406290949794127
-0.8569637569899161
1.6497831494589772
-5.889254534273636
-2.3403805985046313
-42.60835347600229
-0.5124291677348333
0.5143027850415979
0.09976615181299714
-0.08819617080010017
-0.29703415691563134
-0.24914806715703885
0.13160021417107315
-0.37607090360803536
-1.9702451297535222
3.1278780048388994
2.8672572947127173
-2.9346105843975088
-2.9367187522633937
-2.6522736359781547
-2.8429142896342006
-2.0457702292056603
3.1335955174690806
3.145607628110766
3.0970983828064043
3.133349017317474
2.3170613074483875
3.1435236098132635
-3.5251319414024564
3.9625786843786424
-2.5859301471009672
-4.152288665817782
-4.114871704633282
5.215833650748278
4.356714765644386
4.166032285433407
-4.811028490781807
-4.424183658148766
-4.314451120764116
-4.099354672983185
4.303563337915861
4.1105823445122835
4.348744420950762
1.9687778389182136
4.633930102428736
-3.967430577062709
-1.702843650477684
-4.732372773709557
-5.0749885322621795
-1.4216636269026302
-0.21585486063855258
0.756738897541149
-6.280641208863711
-5.454149984832827
5.056497583832793
-5.151931776577458
5.2648079917803585
5.068742876287491
-1.2639728036696791
-4.899388357334988
0.21583187740512297
0.13382380625846269
0.10351568639040624
-0.17057007750514092
0.03682793554690163
-0.17963890424740778
0.06383682067305797
-0.10578501698510885
0.15432674615884245
0.1936430505419198
0.2275554110129047
-5.615702973311002
5.385835071519361
7.332336537091385
-5.761645732485694
5.861539579805198
5.876018903344114
6.148772262184421
-5.354611097769086
5.6422573074292925
5.255028017880724
-5.5777175000055985
-5.478666389165989
-6.389776767240081
6.501720572484777
5.634434645050615
5.763894925328308
0.37078060738237517
13.251725625790106
5.60209122743292
-5.539576432634316
2.4577604598743252
2.2671420167760044
-2.665605491083782
-5.438490118190672
-2.3409528260742904
-5.912133734476873
2.706239580136768
-2.611966420702514
-2.5372260204029238
-1.8811925538098537
2.2317898932507867
2.3783773843253853
-5.575724286502979
0.08634009078791859
6.050377734751217
2.0032017770739623
-2.5004914020212046
-1.902148385414449
2.54199242221778
5.625233621111109
-2.019170213340801
-1.2680280075709662
0.7417679117658916
2.673025001667003
-6.110118110793261
-1.8663475063654804
-6.146498692004043
-6.0961408027297885
-6.271096495654622
-2.126513687588873
-6.1557498544320435
-4.518027111382315
2.4870083145127757
-2.311931397064075
-2.6134622698785144
2.563156479782645
2.475413217630469
-2.436023389750477
-1.548875203359225
1.6846461266770363
1.7892723667472203
1.8048795932215238
2.181653881355157
3.0669511839631607
5.705239777726008
-6.457606791853284
-7.461816101027907
-6.6413683916966315
-8.337940824050417
6.244619380165681
6.808172221091923
-1.7721125644149225
6.66141805691364
-0.9134947551725031
-1.0067067261257079
6.553544009904447
-5.323691752499585
7.941739500028296
6.006944786422263
-6.094651844704054
5.591970096112296
-2.371438482412116
5.603019981289193
6.989509402834947
-2.3795846671981584
-8.29986556198592
-10.849669302958995
-8.805225422985984
6.537944616859658
5.747812909991325
-1.0357733081348164
7.100700292751822
-2.1676451790490625
-7.798556331105546
2.2330213521954687
-2.1053293308548
-2.0188864855699546
23.702559914204414
-6.214344049840465
2.216310107285103
-3.467347509649326
3.679886264071528
3.453107158489772
3.450659671426534
7.464057584306061
1.6262828804900669
-8.218096127755162
8.306311533958306
6.806720005678744
-1.4502330340781981
-1.7951190758406468
-3.514986308399412
6.682509217471624
-6.606735293738709
4.155632761852188
-2.163551594602146
-3.7598542539365694
-0.4459928313968153
-6.2360701655093935
3.2824799900258563
7.441387329533273
5.574285803039257
-4.318496477819439
-3.4024024173353022
-9.953464598278986
-0.5495164889456498
-8.003953743786711
-1.4071373239252687
-3.306639221764711
-8.55796159822624
-7.781829722624529
-0.9216633767462544
-0.6774834030310454
-0.830715843612888
0.7756666552389133
1.0219679391259622
-7.141323101935867
1.4630047812808886
-9.051798969112854
2.0314891910740385
-4.215175110587678
-4.13259785344272
9.460275941007795
3.338331220097658
-3.113717768391686
3.3331879623927216
-3.4568574010065167
-3.2459596069582313
3.473150251044226
6.706870459321135
-6.31515594310207
-4.268284244419543
4.1571912919725245
-4.152156162834651
-1.284007803444778
1.172579990574211
6.147520869285024
-9.83717979436606
-0.7818531295521786
-0.7313237767537173
1.1447746902432399
1.0287645818563587
0.9028164981246908
-6.701958195037369
-8.023485373409157
-3.9085834899969116
4.21305229314301
4.1033057153376
0.9914327508940377
-0.9274646001353137
-0.7229120753112246
-8.680714897423755
0.990410112937185
4.4099060240412005
-4.156338037566712
9.358724492618174
-3.311770914985356
-0.44030214411478014
0.20487521837867845
-0.9611889569464425
4.006539725443339
0.24108180289313635
8.355751144386074
-0.44417862128433516
6.545880047516937
6.104875167645185
4.548266826539159
5.499056566893771
2.631313572520369
-7.495244380545875
-1.2885015007266263
2.150144382303179
0.8394618850070595
1.8879314683291537
-2.2420875889520677
-4.613576929089184
-10.004418440974497
-0.6324257069126651
0.735608153651419
3.699537157923543
0.7387867078660989
-0.5732117737048669
-0.49230146340887904
5.486152287070375
4.904052110091449
-4.08222891776519
-4.227258612804946
4.050601069503479