# vtk DataFile Version 1.0
2D Simulation C++
ASCII
DATASET UNSTRUCTURED_GRID
FIELD FieldData 1
NODES 1 2 int
715 1308

POINTS 715 double
0.0 0.0 0.0
5.0 0.0 0.0
5.0 1.0 0.0
0.0 1.0 0.0
0.10000000149011612 1.0 0.0
0.20000000298023224 1.0 0.0
0.30000001192092896 1.0 0.0
0.4000000059604645 1.0 0.0
0.5 1.0 0.0
0.6000000238418579 1.0 0.0
0.699999988079071 1.0 0.0
0.800000011920929 1.0 0.0
0.8999999761581421 1.0 0.0
1.0 1.0 0.0
1.100000023841858 1.0 0.0
1.2000000476837158 1.0 0.0
1.2999999523162842 1.0 0.0
1.399999976158142 1.0 0.0
1.5 1.0 0.0
1.600000023841858 1.0 0.0
1.7000000476837158 1.0 0.0
1.7999999523162842 1.0 0.0
1.899999976158142 1.0 0.0
2.0 1.0 0.0
2.0999999046325684 1.0 0.0
2.200000047683716 1.0 0.0
2.299999952316284 1.0 0.0
2.4000000953674316 1.0 0.0
2.5 1.0 0.0
2.5999999046325684 1.0 0.0
2.700000047683716 1.0 0.0
2.799999952316284 1.0 0.0
2.9000000953674316 1.0 0.0
3.0 1.0 0.0
3.0999999046325684 1.0 0.0
3.200000047683716 1.0 0.0
3.299999952316284 1.0 0.0
3.4000000953674316 1.0 0.0
3.5 1.0 0.0
3.5999999046325684 1.0 0.0
3.700000047683716 1.0 0.0
3.799999952316284 1.0 0.0
3.9000000953674316 1.0 0.0
4.0 1.0 0.0
4.099999904632568 1.0 0.0
4.199999809265137 1.0 0.0
4.300000190734863 1.0 0.0
4.400000095367432 1.0 0.0
4.5 1.0 0.0
4.599999904632568 1.0 0.0
4.699999809265137 1.0 0.0
4.800000190734863 1.0 0.0
4.900000095367432 1.0 0.0
5.0 0.8999999761581421 0.0
5.0 0.800000011920929 0.0
5.0 0.699999988079071 0.0
5.0 0.6000000238418579 0.0
5.0 0.5 0.0
5.0 0.4000000059604645 0.0
5.0 0.30000001192092896 0.0
5.0 0.20000000298023224 0.0
5.0 0.10000000149011612 0.0
4.900000095367432 0.0 0.0
4.800000190734863 0.0 0.0
4.699999809265137 0.0 0.0
4.599999904632568 0.0 0.0
4.5 0.0 0.0
4.400000095367432 0.0 0.0
4.300000190734863 0.0 0.0
4.199999809265137 0.0 0.0
4.099999904632568 0.0 0.0
4.0 0.0 0.0
3.9000000953674316 0.0 0.0
3.799999952316284 0.0 0.0
3.700000047683716 0.0 0.0
3.5999999046325684 0.0 0.0
3.5 0.0 0.0
3.4000000953674316 0.0 0.0
3.299999952316284 0.0 0.0
3.200000047683716 0.0 0.0
3.0999999046325684 0.0 0.0
3.0 0.0 0.0
2.9000000953674316 0.0 0.0
2.799999952316284 0.0 0.0
2.700000047683716 0.0 0.0
2.5999999046325684 0.0 0.0
2.5 0.0 0.0
2.4000000953674316 0.0 0.0
2.299999952316284 0.0 0.0
2.200000047683716 0.0 0.0
2.0999999046325684 0.0 0.0
2.0 0.0 0.0
1.899999976158142 0.0 0.0
1.7999999523162842 0.0 0.0
1.7000000476837158 0.0 0.0
1.600000023841858 0.0 0.0
1.5 0.0 0.0
1.399999976158142 0.0 0.0
1.2999999523162842 0.0 0.0
1.2000000476837158 0.0 0.0
1.100000023841858 0.0 0.0
1.0 0.0 0.0
0.8999999761581421 0.0 0.0
0.800000011920929 0.0 0.0
0.699999988079071 0.0 0.0
0.6000000238418579 0.0 0.0
0.5 0.0 0.0
0.4000000059604645 0.0 0.0
0.30000001192092896 0.0 0.0
0.20000000298023224 0.0 0.0
0.10000000149011612 0.0 0.0
0.0 0.10000000149011612 0.0
0.0 0.20000000298023224 0.0
0.0 0.30000001192092896 0.0
0.0 0.4000000059604645 0.0
0.0 0.5 0.0
0.0 0.6000000238418579 0.0
0.0 0.699999988079071 0.0
0.0 0.800000011920929 0.0
0.0 0.8999999761581421 0.0
0.7496038675308228 0.5164291858673096 0.0
1.3451675176620483 0.5190238952636719 0.0
1.9462687969207764 0.4963642954826355 0.0
4.456614971160889 0.5060901641845703 0.0
3.864220380783081 0.4866538345813751 0.0
3.249823808670044 0.482722669839859 0.0
2.6500000953674316 0.5 0.0
0.3810288906097412 0.399004191160202 0.0
2.308779239654541 0.3797946870326996 0.0
1.0499999523162842 0.6625000238418579 0.0
1.644740104675293 0.6598879098892212 0.0
4.150000095367432 0.3375000059604645 0.0
3.555316209793091 0.3343118131160736 0.0
2.9446933269500732 0.3401789665222168 0.0
1.6342840194702148 0.3290160894393921 0.0
1.0591840744018555 0.33908534049987793 0.0
2.9654481410980225 0.6753292679786682 0.0
3.5534629821777344 0.6835107207298279 0.0
4.153462886810303 0.6835107207298279 0.0
2.2139804363250732 0.6805098056793213 0.0
0.4914395809173584 0.6739721894264221 0.0
4.691666603088379 0.6916666626930237 0.0
4.691666603088379 0.3083333373069763 0.0
2.4872219562530518 0.7236665487289429 0.0
0.6240421533584595 0.2677222192287445 0.0
2.0697431564331055 0.2657754421234131 0.0
2.5389034748077393 0.26082900166511536 0.0
0.8147311806678772 0.7450684309005737 0.0
1.2897310256958008 0.743314266204834 0.0
1.8853894472122192 0.7450258731842041 0.0
4.382374286651611 0.23655959963798523 0.0
3.910269021987915 0.25668570399284363 0.0
3.1838724613189697 0.25397706031799316 0.0
1.398239254951477 0.2614254057407379 0.0
3.201760768890381 0.7385746240615845 0.0
3.8017609119415283 0.7385746240615845 0.0
4.39177942276001 0.7466779351234436 0.0
0.25301694869995117 0.7458874583244324 0.0
2.7258167266845703 0.7600342631340027 0.0
0.84163498878479 0.2263137847185135 0.0
0.22429518401622772 0.22429518401622772 0.0
2.7605957984924316 0.22504857182502747 0.0
1.8330284357070923 0.2150011658668518 0.0
0.2192869633436203 0.5323538780212402 0.0
4.7908525466918945 0.5038931369781494 0.0
2.466000556945801 0.5376454591751099 0.0
3.7061264514923096 0.17723728716373444 0.0
3.3929696083068848 0.20266839861869812 0.0
1.4905184507369995 0.7937026619911194 0.0
1.2104878425598145 0.20361483097076416 0.0
3.9895122051239014 0.7963851690292358 0.0
3.389512300491333 0.7963851690292358 0.0
0.5652223825454712 0.5070380568504333 0.0
0.44509074091911316 0.19716571271419525 0.0
2.1318352222442627 0.5042122602462769 0.0
1.548349142074585 0.4954715371131897 0.0
3.050636053085327 0.5004673004150391 0.0
0.9511125087738037 0.498258113861084 0.0
3.651650905609131 0.5045284628868103 0.0
4.248488903045654 0.4980509281158447 0.0
1.1537858247756958 0.49593159556388855 0.0
4.050199031829834 0.49993085861206055 0.0
3.464722156524658 0.509624183177948 0.0
1.749653697013855 0.5001751780509949 0.0
2.851828098297119 0.5057260394096375 0.0
2.359710216522217 0.1888567954301834 0.0
2.0499017238616943 0.8199846148490906 0.0
0.6430503129959106 0.8181284070014954 0.0
4.560274600982666 0.1724673956632614 0.0
4.55863094329834 0.8299665451049805 0.0
2.321284055709839 0.8242537379264832 0.0
4.815218925476074 0.8345447778701782 0.0
4.837246894836426 0.16590170562267303 0.0
0.9682294130325317 0.8331464529037476 0.0
1.730908751487732 0.827606201171875 0.0
4.220076560974121 0.17516615986824036 0.0
3.02066969871521 0.18326662480831146 0.0
1.5634372234344482 0.17044226825237274 0.0
3.035303831100464 0.8294908404350281 0.0
3.627507209777832 0.8360387086868286 0.0
4.2312469482421875 0.8315803408622742 0.0
4.618130683898926 0.5361976027488708 0.0
0.40311703085899353 0.8369210362434387 0.0
1.1473191976547241 0.8458209037780762 0.0
4.052680969238281 0.15417908132076263 0.0
2.020958423614502 0.6394158005714417 0.0
0.662188708782196 0.6447370648384094 0.0
4.5115838050842285 0.3538685142993927 0.0
1.0221220254898071 0.15309639275074005 0.0
0.3837882876396179 0.5515117049217224 0.0
3.548090934753418 0.15800617635250092 0.0
1.4348299503326416 0.6465393304824829 0.0
3.765170097351074 0.3534606993198395 0.0
3.3348300457000732 0.3534606993198395 0.0
1.2546738386154175 0.36384353041648865 0.0
3.945326089859009 0.636156439781189 0.0
3.3412928581237793 0.637225866317749 0.0
2.1904795169830322 0.17066854238510132 0.0
0.16392111778259277 0.38331863284111023 0.0
2.87723445892334 0.8265392184257507 0.0
4.8459792137146 0.6499902606010437 0.0
4.845625400543213 0.34837812185287476 0.0
2.771622896194458 0.38129922747612 0.0
4.5222978591918945 0.6578375697135925 0.0
2.604464530944824 0.8240283727645874 0.0
1.8544400930404663 0.3751189708709717 0.0
0.8566747903823853 0.38255012035369873 0.0
2.2932615280151367 0.5369129776954651 0.0
2.620572805404663 0.6496497392654419 0.0
0.7172287106513977 0.1490369737148285 0.0
0.1410960853099823 0.8303417563438416 0.0
1.7142322063446045 0.142862930893898 0.0
2.6314175128936768 0.14492936432361603 0.0
1.9832650423049927 0.1408119648694992 0.0
2.445650577545166 0.370038241147995 0.0
2.885042667388916 0.1455758661031723 0.0
0.13937503099441528 0.6546638011932373 0.0
0.9110832810401917 0.6349053978919983 0.0
3.088575839996338 0.3613528311252594 0.0
4.296638011932373 0.3563385307788849 0.0
1.1930090188980103 0.6355591416358948 0.0
1.788455843925476 0.6387236714363098 0.0
4.006990909576416 0.3644408583641052 0.0
1.4459187984466553 0.39242905378341675 0.0
4.354081153869629 0.6075709462165833 0.0
3.7540812492370605 0.6075709462165833 0.0
3.1591691970825195 0.6018876433372498 0.0
2.7615907192230225 0.6205627918243408 0.0
2.36276912689209 0.6735464930534363 0.0
1.3681535720825195 0.8630191683769226 0.0
3.8318464756011963 0.1369808316230774 0.0
3.275517463684082 0.10712132602930069 0.0
0.5630941987037659 0.12814241647720337 0.0
1.3237862586975098 0.10638008266687393 0.0
3.2733232975006104 0.8705052733421326 0.0
3.8733232021331787 0.8705052733421326 0.0
2.0396511554718018 0.38928428292274475 0.0
2.2168734073638916 0.8508136868476868 0.0
0.5163488388061523 0.3409615159034729 0.0
0.6547463536262512 0.3955095112323761 0.0
1.9480526447296143 0.8710126876831055 0.0
4.689375877380371 0.13700176775455475 0.0
4.698264122009277 0.8675068616867065 0.0
0.7578787803649902 0.8698469996452332 0.0
2.479548454284668 0.13692785799503326 0.0
2.4562506675720215 0.8735422492027283 0.0
2.171211004257202 0.3573116958141327 0.0
3.5117530822753906 0.853193998336792 0.0
4.107914924621582 0.8658969402313232 0.0
2.640726327896118 0.354434996843338 0.0
4.346996307373047 0.1279495507478714 0.0
0.3128283619880676 0.11246757209300995 0.0
0.136248379945755 0.12152919173240662 0.0
4.453908443450928 0.8629162907600403 0.0
1.6064813137054443 0.8679171800613403 0.0
0.3380795121192932 0.6626779437065125 0.0
0.5102446675300598 0.875635027885437 0.0
0.7425088882446289 0.2989330589771271 0.0
3.1349449157714844 0.10448489338159561 0.0
1.3287748098373413 0.6181886196136475 0.0
3.871795415878296 0.38215625286102295 0.0
3.229135036468506 0.3810797333717346 0.0
0.28971707820892334 0.8759857416152954 0.0
0.9214505553245544 0.11992674320936203 0.0
1.9219478368759155 0.6237660050392151 0.0
1.530794620513916 0.29603153467178345 0.0
3.072223663330078 0.7044162750244141 0.0
3.6722235679626465 0.7044162750244141 0.0
[...]
POINT_DATA 715
SCALARS Psi double
LOOKUP_TABLE default
0.0
0.0
1.0
1.0
1.0
1.0
1.0
1.0
1.0
1.0
1.0
1.0
1.0
1.0
1.0
1.0
1.0
1.0
1.0
1.0
1.0
1.0
1.0
1.0
1.0
1.0
1.0
1.0
1.0
1.0
1.0
1.0
1.0
1.0
1.0
1.0
1.0
1.0
1.0
1.0
1.0
1.0
1.0
1.0
1.0
1.0
1.0
1.0
1.0
1.0
1.0
1.0
1.0
0.9193861494842113
0.8660244708038292
0.7650120940477307
0.6283925712311473
0.47042358089481107
0.31137422218203126
0.17291762188779924
0.07068285063298102
0.018579778521433055
0.0
0.0
0.0
0.0
0.0
0.0
0.0
0.0
0.0
0.0
0.0
0.0
0.0
0.0
0.0
0.0
0.0
0.0
0.0
0.0
0.0
0.0
0.0
0.0
0.0
0.0
0.0
0.0
0.0
0.0
0.0
0.0
0.0
0.0
0.0
0.0
0.0
0.0
0.0
0.0
0.0
0.0
-0.0
0.0
0.0
0.0
0.0
0.0
0.0
0.027349005723014304
0.10769487658765807
0.20923051272216617
0.3108739212591116
0.41246453858938925
0.5108191603494648
0.6026380511022175
0.6784509299028746
0.6416408985722692
0.5300704456895639
0.5436182709015867
0.5007793239942265
0.49408972836570497
0.4698481162351737
0.47116485623365734
0.5089736241487333
0.320406238697002
0.30662157557154296
0.7747626129819579
0.7664964378615613
0.22662086891551897
0.22281042641470167
0.24409845382670495
0.2270306046175037
0.2548701632978536
0.7932122447255764
0.7923066961310927
0.7896726866935619
0.7981583441062617
0.7598880959967211
0.7868043930655868
0.17556256750137889
0.8543793693924123
0.15684069808578222
0.14332980564298334
0.13811780079953537
0.8816149239373451
0.8776457016429812
0.8765325647952168
0.0907513584268835
0.12163839156634958
0.12223179161413233
0.13536427612133128
0.8700639343670554
0.8647957614146055
0.869835893320676
0.7934741839646767
0.9003895040932122
0.11060380648057845
0.11127148625232021
0.09474078089435038
0.08181219661880347
0.46456877466596946
0.47935728786304915
0.5723700208428418
0.039796871706679914
0.06230907016123252
0.9299666107980483
0.069778834539734
0.9269669766895975
0.9274399843209724
0.49545849397638325
0.07117581663232965
0.5148665066555386
0.5012973594610933
0.5065701624466379
0.5098899043109049
0.5018756092189532
0.48508014761605694
0.506961024324877
0.49097269269309163
0.5125961911636157
0.5076317227032694
0.5186019696351063
0.056478244944572514
0.9537995666791221
0.9590474327931573
0.03646474198453751
0.9539608395542587
0.9594675989890692
0.9427321006503538
0.02780709666217126
0.9639153594353239
0.9568996730296749
0.039946241378959996
0.05155742430492149
0.04067762717464168
0.9655435610195048
0.9619139802404721
0.9587827883744541
0.5404681976142566
0.9786724057763233
0.9709331550923902
0.029495056870496823
0.7352514740582111
0.7344615743988628
0.24312343590750266
0.03679842383378475
0.529290812657652
0.028857157021806173
0.7489935129788116
0.2507638747665585
0.2554087769655696
0.2870056539496468
0.7185905835247071
0.7253262098971406
0.043581395086274885
0.29479709676996746
0.9645663090096263
0.7153552938879194
0.22610560093672358
0.31013199168544675
0.7442463862337886
0.9599317493092798
0.29844578146725936
0.32232513436027505
0.5703611468651615
0.7547031858670229
0.03726379537562355
0.8225968927089587
0.025367725660336304
0.026695925116785518
0.024697508835217843
0.2921087405469083
0.02583715454312578
0.583799323119133
0.731695747688284
0.2743115958635611
0.2515240868421726
0.7338354876765202
0.7334823156579139
0.26874710199508783
0.32948376398558404
0.6678986211393905
0.6740293028143227
0.6743395479430241
0.7095073136022584
0.7866866361340191
0.9791970845584619
0.01752494639228115
0.0018604679700225484
0.021263091909173117
0.0011091568182437738
0.9816272366792552
0.9826161109821884
0.3221830228244044
0.9761323949051115
0.2496364879365019
0.3344926415393152
0.9853707610560488
0.019439215177694195
0.9790171472527548
0.9849568305944941
0.02280339182023775
0.9841836474769682
0.27155053236960447
0.9701990677389093
0.9805921789066825
0.26853076062155246
0.00570660949375388
0.006011435389551172
0.022590007226301553
0.9776208359650591
0.9812357799853019
0.6942348274809111
0.9922281801829591
0.19999035266850831
0.0030346870359148235
0.7057643623167822
0.2966977746028351
0.30222220201640726
1.0187570080677608
0.021838059631968706
0.7100140299462597
0.18105829265509119
0.830541377302567
0.8198460231500945
0.8166433635282149
1.0057464998989565
0.6891948935264794
0.0041179800919711575
0.9948126362945489
0.9943931635244975
0.15506238784219561
0.3230997438628726
0.18153982610408953
0.9957618220891025
0.003645866153593294
0.8691933845531679
0.2910470412519096
0.1275118284392077
0.3409447183429855
0.011387873944582806
0.16199702081538633
0.9905730485882465
0.9901135960375632
0.12439091888338952
0.18949492545283433
-0.0015315415193887048
0.4401874965334356
-0.0034030672839882514
0.4047659194581227
0.19102542670632408
-0.0037119428191153873
0.0007791609758969008
0.4098927239906696
0.4271668595308617
0.4146555503710706
0.5925595447273585
0.5912008651817611
0.0031094571677678117
0.552310976919596
0.001616326145454452
0.69493371332191
0.12726670032093473
0.6021287736584203
1.0010949216665683
0.8068719742878216
0.17323645978117108
0.8049247796816535
0.1817490053035608
0.20013223944379938
0.8172251034683723
0.9983440962300238
0.0016263496992301436
0.13083968793583434
0.8665659029492173
0.13269015313514465
0.3305098957649502
0.6190752593495724
0.8290143137217301
0.10396488420715642
0.40820277987912884
0.41673253662035625
0.6113944519691176
0.5994623533788055
0.5932426997558509
0.02034987534953713
0.6538770284066076
0.1374360632061817
0.8670389225185517
0.8634275478237736
0.5958916290890257
0.4081756710020937
0.42316761938410447
0.0037987007896594306
0.5897911251146049
0.868695396522315
0.1329131397128578
1.0063218470284376
0.19333126048453186
0.5743212784640663
0.6579468538234252
0.4053188625573678
0.8631230214093709
0.5815406284161602
0.9992004857192373
0.4503652838399663
0.9884884658822168
0.9876635297533294
0.8965395328489802
0.8673492154034029
0.9585236993854233
0.005849356220523563
0.42401668563846506
0.708544594365099
0.5769111370584264
0.682790002946498
0.36568600655106825
0.10317519165863358
-0.0013924830597227373
0.4397183353911058
0.21144073369302074
0.8408181217927677
0.5648282498778464
0.4414993814856149
0.44702173620456814
0.8513455169236268
0.8765989621239973
0.1366304020460206
0.12157374800958866
0.8691539985672495
0.4091353401391002
0.9990688023569742
0.14238008096757113
0.9060845912320271
0.9071874891514348
0.3565420022282022
0.9178453404306092
1.0040490535139026
0.11277290349934896
0.14141589820131428
0.6779213052472056
0.32385312382414994
0.6795021311921006
0.6899206553422593
0.08410569616659537
0.6698488879595144
0.3345385794947233
0.3342538525990186
0.00650726496619844
0.47294145458205994
0.26238646705606167
0.7398261893376219
0.7664485796813122
0.3391289997569009
0.8773910493443436
0.6680349464413132
0.6636199789284957
0.6364697429787852
0.007565653347184716
0.007445371816984462
0.12914029037916255
0.8245930911924427
-0.0030566034018021334
0.9160107838964606
0.9162114437483755
0.8489929962063087
-0.0033557426004925113
-0.0027392896748349373
0.1901414671712589
0.3406731615781601
0.0002985503809663686
1.0004250531041803
0.3369935851659953
0.8880923216213834
1.0001660301287907
0.8834812838718541
0.1188139872573459
1.0057856763810484
-0.001399598237391437
0.10174029234782898
0.9955276767923138
-0.0004209256864660782
0.3175385617992918
0.0005934149519849915
0.6921302206575173
0.003654304380192027
1.0019454184732457
1.0043907942098975
0.11131760401813298
0.49314594147271534
0.14947345054582467
0.9977636130974326
0.8866302181639817
0.998894357124418
0.3269359126167926
0.9993714464470876
1.0027988366079148
0.1333177912759618
0.08759543791356485
8.057891139371144e-05
0.2787600337849826
0.6487057472466017
0.5856631773013546
0.4122523571538331
0.5636985070410614
1.0040001231387967
0.25554043916546226
0.5717076431208951
0.9999252267256522
0.00036226782736105206
-0.001307011235932731
0.1936426642440342
0.407158495775312
0.5780054079821605
-0.001800757077804653
0.9217951923264922
1.0051792550722523
0.8847992705543453
0.09056348895138619
0.9149960976965774
0.9090941462273338
0.6340228231848122
0.07677624784251766
0.8966193198904802
-0.0018970941508774741
0.2776886353482239
0.0026299044268891176
0.9331373689322898
0.06656055342552802
-0.001469567463328604
0.5889977582208731
0.5399691363732426
1.0042189873017557
1.0154459218120087
1.001462401163319
0.0013075719934754408
0.43334714672094454
0.6801646152212268
0.6879498245748263
0.6822522904310485
0.3190637799562822
0.3153271563474048
0.3294430192781035
0.9440741316711587
1.0353795904684335
0.9973986217360983
0.9947644001232292
0.9634791025979015
0.6847778093908582
0.7573394305821705
-0.001946008038214592
0.06494647775054974
0.7911182975757696
0.706941459089072
0.22899691443193143
0.8726695020243261
0.08398701260577388
0.07522972081139713
0.7187483751375103
0.6215286984985379
0.43448151388772627
0.9980629478454114
1.0011880455312545
0.7749669577650428
0.1003568380343879
0.931449090250427
0.21064468459697944
0.9524942261929579
0.052742801546528995
1.000327904983009
0.0021537725691535645
0.36592871638242086
0.6130666578521283
0.36003185687174344
0.8332938261335439
0.04123967498330881
0.5914951394910856
0.37552776690002165
0.8395172973000228
-0.0011445320073874045
-0.003481962058997275
0.18944928789608106
0.17354645958281298
0.05609249406943675
0.10342545474265034
0.9457124819577077
0.8419699579331402
0.15910521099377828
0.8016859705906666
0.20306829734288634
0.9068482808839312
0.9039804200983284
0.90352818241786
-0.004600994908028218
0.9414621681968316
0.3587323154955694
0.2158016528670068
1.0004467299195938
0.1681708484593038
0.558750581104648
0.7147323336213591
0.6115744050682479
0.641125506927631
0.04317724894725969
0.9526396786337545
0.9518907852212786
0.05491228238951972
0.6962951912600489
-0.0061466926881331395
1.0057925242629129
1.003640947932413
0.03704426055500117
0.04097809169535503
0.8953200080786223
0.25192174842075127
0.9484484428687009
0.450104010780758
0.8604213893460825
-0.00039826765416721443
0.6446820533734703
0.35502732530765185
0.36582930120957613
1.0010987785309395
-0.0020731409766671788
0.5573407579893028
-0.007555594614080086
0.4132235257491792
0.06739198514587746
-0.0011414109177034736
0.2342728559745937
0.6274191283602599
0.7203129469657334
0.7849089536299786
0.9501470935151921
0.047458072457792065
0.24035084264976964
0.18340583265009291
0.7698378027413365
1.004435497643423
0.23313290344747312
0.06787082837930104
0.1838457525024972
0.053059038321188204
0.9305353613084207
0.046161329685697305
0.2094023617122314
0.7876855413216859
0.7923090977739216
0.8011490865030337
0.40767809463575055
1.0058767343173771
0.36946257099830504
0.9182419108355725
-0.0012022863113050257
0.05052934882633326
0.039377054564899976
0.5968316783397712
0.06969474058660734
0.0020974276353528886
0.059880528437246325
0.08157817782791357
0.4124511632621785
0.5622260680641613
0.029704673820943585
0.19286347069312215
-0.0018223349596381566
1.0000575556968787
0.9189230317892211
0.43382729843263595
0.57129012306211
0.6278344989164861
0.9393334701294509
0.05106533793134155
0.05003416814452694
0.9982434503144337
0.030209133606525055
0.5060822829161729
0.32433197035693706
0.1187047603213175
-0.0008083359269261827
0.7918080978616175
0.9494511470319255
0.1440837150793449
0.1254629768350512
0.8545596760703581
1.0017308550888269
0.04471928567331811
0.9439891351887226
0.9435925558880498
0.4441343068696927
0.4429143151253094
1.0007813117193378
0.21417841346371533
0.33467731880892143
0.37426890298759247
0.00026132326104500564
0.9680134008165663
0.968863748761964
0.24455599332109043
0.5981848044170257
0.833415480477988
0.8357203782416543
0.1889024924953272
0.8310159720737605
0.2312661367377332
0.8828059726108215
0.8815218156389704
0.6197017927296403
0.8947752231145728
0.6200352563066864
0.05098761039391938
0.9505932550612137
0.3924058258186287
0.6235621635705139
0.37632813372611523
-0.007149087123220094
0.31269792964152093
0.05683185527473309
-0.0004642579495468908
0.5680137685072655
0.11515457600549582
0.22028932070661222
0.08609452865253193
0.8003101867797467
0.8744736186433699
0.9760395644313771
0.5854599958292152
0.0032577982532203237
0.40376854413083374
0.077701747842165
0.9991986027330861
1.0001940386894435
-0.0009432497243003923
0.057929184494536066
0.9463236952778878
0.0004098812106571502
-0.0041299079182239
0.2332179901216898
0.7684611676719902
0.4368653245145978
1.00279591925501
0.2223026398701566
0.8204658574525784
0.19735408530639933
0.809317756298794
0.19049684484385043
0.9787003195141045
0.0016178911939043832
0.4081848239035517
1.0008860837529576
0.9586929646157691
0.04305492661427091

SCALARS Omega double
LOOKUP_TABLE default
-7.6764944092386935
-1.1803662344028332
8.579046073822685
15.92018529504057
36.51089197177572
-6.477768184019055
2.4232656085077973
-4.464728629755301
-0.42783427312892547
1.9234635727999811
0.04824073121834815
-0.6368813445347429
0.4851150610500691
1.1459843329520176
0.23183409734909735
0.8260967489997524
0.5473781446523643
0.7958564010948708
1.5568631362818293
-0.0883226417889671
1.4144647202790177
1.2440272710094558
-0.4123769930225337
0.4890535601811242
1.065754531471298
1.0374094318835958
0.761304939040985
0.2385568111034833
0.4604128542801466
1.4209889800715623
1.1085761850196785
0.16270052739172192
1.3307705894037487
0.8621316747946658
0.41627094628970523
1.1167042432766665
0.7539067777791346
0.37813067341608153
1.3089399798073353
0.6756924881740383
1.375816656696293
0.6940075134020033
0.4337417054763932
0.35190772434431766
0.9406645462223103
0.7240033625397576
2.1218859888721133
0.4646091052061822
-0.463855290802477
2.15943165247294
0.8696040272322592
1.861622680364864
9.582266453546586
-7.838551559430659
0.5689875487513251
2.860524030244014
1.63629948139844
-0.10509804479575617
-1.154502546461947
-2.6411862856641504
-3.2981165622597115
-1.5527753270203684
-0.251884512877034
-0.6505135975773931
-1.0548660726417505
-0.13395291434783987
-0.7032268358122578
-0.38082650583596567
-1.0646009574619817
-0.8163961894479932
-0.31033607341878733
-0.7191497814393314
-0.45798989201366513
0.09687107132047572
-1.7657002637949542
-0.6486017263815157
0.3875393444930155
-1.4928828778162189
-0.5992064144439866
-0.2993141732117383
-1.108385923174621
-0.8072851085644392
-0.42507199445513716
-1.1037056323738386
-0.886930690746436
-1.4167004306810356
-0.1693980126087174
-0.5587965407187987
-0.9695033807919166
-1.0840744087304854
-0.7432213450843959
0.6881686817156834
-1.3970012099833655
-1.2266126983212782
0.2055647879360362
-0.8518936799693932
-1.1189979259145049
-0.16274239219445466
-0.5575696164986966
-1.526429086522891
-1.5309441795390697
-0.3933502700225569
-1.9062172363481538
-0.4859420926929215
-2.072201247550942
-0.4987933438607759
-0.13993654529974833
-2.0695077958698898
-1.9109547706158754
-0.8190362446303785
0.7511220811187633
-4.59270942224879
2.64580916802087
0.31204204060092566
-0.025404188781251436
-0.8569638304936278
1.6497863615556427
-5.889259318120064
-2.3403922692398025
-42.608344124404965
-0.5123676579399732
0.5149804666529142
0.10145176425459768
-0.08518578463460577
-0.2910718237277167
-0.25659018492135144
0.12386425677152561
-0.3761097720796889
-1.9922618259498472
3.128309399392515
2.8740361771734424
-2.9502137849923145
-2.9496358412856445
-2.6800744526935865
-2.8484442121774496
-2.04553244012378
3.145246592971738
3.168934672697386
3.1223215654217706
3.152280530445818
2.3171543702772484
3.166581270539324
-3.5509051169847
3.9736423339540314
-2.585978728796568
-4.167318412582542
-4.132644320616334
5.215857782560886
4.3563098458299985
4.17338942412146
-4.82143682336659
-4.435297786268535
-4.323135747738497
-4.100005755803288
4.314915473854668
4.124820652933097
4.361708184714214
1.9688117055610057
4.641061803745135
-3.967475425106585
-1.7028445328794501
-4.740420396399454
-5.078539913235306
-1.4216813075324501
-0.21942640923381196
0.7603999031607576
-6.280530886893061
-5.452667079674702
5.054259609935821
-5.151856325583486
5.263392162338108
5.071295658797183
-1.2640317337763995
-4.899416538319333
0.2189760464944103
0.1341864155735383
0.09426186249349854
-0.17026920894836978
0.043960133982553024
-0.1748916981740608
0.06437756129617644
-0.09800864637533395
0.15814479690197325
0.19486893006109884
0.2186408224682692
-5.6100679793809345
5.381094136239127
7.332052463984941
-5.753596358764318
5.853470265700511
5.872754554926526
6.146883881587187
-5.3399672142748
5.64175734400086
5.248403967744304
-5.574728666734703
-5.471162925369419
-6.387230566879887
6.500599412293448
5.622780857454917
5.75387187339704
0.3787760930323374
13.251667815179816
5.601356171321114
-5.53608937857658
2.4755074361322875
2.2673218619587634
-2.6907033850499684
-5.43888672322136
-2.3410012243931186
-5.9081042403255175
2.708262283347728
-2.623923676074414
-2.5538271205015852
-1.8811650061318022
2.258986788380336
2.3966176979040372
-5.56973479549783
0.08634222236971648
6.0507581769612
2.0276736757397478
-2.5310702967832936
-1.9307730040748414
2.5687546305774456
5.626318081560557
-2.030085833590965
-1.2680102628845078
0.7496975278004685
2.686156160464668
-6.110316474387396
-1.8663164011132085
-6.140656929755953
-6.07830352454751
-6.259634373834774
-2.1532795635476867
-6.135247956061211
-4.518046249773761
2.4874416651270184
-2.3343120515646647
-2.6315232258315224
2.563671128555408
2.4854972738806107
-2.449054102337546
-1.5500413367801884
1.7078523524759142
1.812954407589907
1.8146673783346359
2.190661546223626
3.0828491126557234
5.702954099883347
-6.453333002989727
-7.446781733008687
-6.641430548603293
-8.337837909227051
6.233593536022119
6.786773511826415
-1.7876129879822091
6.653124107677352
-0.9135520834220149
-1.0068089807385272
6.5420396910237635
-5.306325633618635
7.92482922625553
6.006509075385284
-6.0724682982536775
5.588336082556302
-2.393540283197776
5.5905850935237975
6.969936443196848
-2.4111368742693147
-8.282926015185609
-10.849666134895154
-8.805224253786697
6.520063519885774
5.741814494051599
-1.035748453099851
7.100568181216876
-2.167683368655568
-7.775357715506332
2.233922588588356
-2.115371254933433
-2.0364868894268158
23.70251003697708
-6.214651667540036
2.2295799009681136
-3.4700835294814047
3.692062514683081
3.4744752128426537
3.4728519774255298
7.461603389613449
1.6265443559814337
-8.215565622413271
8.279324396571312
6.797575173412562
-1.4502429752616721
-1.8192812979722464
-3.5302554514371
6.683416307090901
-6.600438985048656
4.164958895533558
-2.182194378610407
-3.759794818093269
-0.4460077304982095
-6.220725656732618
3.282482408960262
7.431637187238425
5.573739292909167
-4.334470229583314
-3.4117584863434485
-9.953800762454486
-0.5637866923435727
-7.967404553832218
-1.4071396174444029
-3.3338198562650887
-8.552213433181807
-7.770033388670706
-0.9241667137105075
-0.696364974613146
-0.8336536726167222
0.7762041165950819
1.0253737096043747
-7.119390051140864
1.4745571081489515
-9.035018974702057
2.0432998743945983
-4.232740799729171
-4.1326194967023815
9.428930351647702
3.3610561847489238
-3.1135369440259817
3.3533219018262637
-3.4697242304093594
-3.2581929529824936
3.4767475913888592
6.706970385933327
-6.304663850660714
-4.27912391224565
4.157336842599937
-4.161965601002306
-1.2838678352519688
1.1899044326056936
6.193432736784632
-9.888969181342322
-0.7841543107744252
-0.7309821533490641
1.1459060351836834
1.043247148059515
0.9210146266335314
-6.702109303408582
-8.023507893774195
-3.908706382829297
4.226923872421434
4.119112067568329
0.9921697225353325
-0.9283250409707807
-0.7377270094343616
-8.644821928057427
0.9973884275002104
4.4097563836525575
-4.170163476085185
9.354433481744282
-3.3378583293336943
-0.44025071870910776
0.2049621968385743
-0.972263551607855
4.01787989169263
0.2413353309566734
8.353204535539817
-0.45257407707087144
6.521783286780948
6.0900506370953345
4.548985667017509
5.499114239851245
2.5997135288866065
-7.459908343437656
-1.2885822897515702
2.1597139179492815
0.8488213223496621
1.9058298991479536
-2.27849903617635
-4.6218903973837575
-10.004375388396447
-0.6349509800630494
0.735606685748696
3.7149614838977456
0.7398673365412722
-0.5705702898650099
-0.49849862518077087
5.486235455983383
4.904129481945059
-4.09410849134112
-4.24252226641753