# vtk DataFile Version 1.0
2D Simulation C++
ASCII
DATASET UNSTRUCTURED_GRID
FIELD FieldData 1
NODES 1 2 int
715 1308

POINTS 715 double
0.0 0.0 0.0
5.0 0.0 0.0
5.0 1.0 0.0
0.0 1.0 0.0
0.10000000149011612 1.0 0.0
0.20000000298023224 1.0 0.0
0.30000001192092896 1.0 0.0
0.4000000059604645 1.0 0.0
0.5 1.0 0.0
0.6000000238418579 1.0 0.0
0.699999988079071 1.0 0.0
0.800000011920929 1.0 0.0
0.8999999761581421 1.0 0.0
1.0 1.0 0.0
1.100000023841858 1.0 0.0
1.2000000476837158 1.0 0.0
1.2999999523162842 1.0 0.0
1.399999976158142 1.0 0.0
1.5 1.0 0.0
1.600000023841858 1.0 0.0
1.7000000476837158 1.0 0.0
1.7999999523162842 1.0 0.0
1.899999976158142 1.0 0.0
2.0 1.0 0.0
2.0999999046325684 1.0 0.0
2.200000047683716 1.0 0.0
2.299999952316284 1.0 0.0
2.4000000953674316 1.0 0.0
2.5 1.0 0.0
2.5999999046325684 1.0 0.0
2.700000047683716 1.0 0.0
2.799999952316284 1.0 0.0
2.9000000953674316 1.0 0.0
3.0 1.0 0.0
3.0999999046325684 1.0 0.0
3.200000047683716 1.0 0.0
3.299999952316284 1.0 0.0
3.4000000953674316 1.0 0.0
3.5 1.0 0.0
3.5999999046325684 1.0 0.0
3.700000047683716 1.0 0.0
3.799999952316284 1.0 0.0
3.9000000953674316 1.0 0.0
4.0 1.0 0.0
4.099999904632568 1.0 0.0
4.199999809265137 1.0 0.0
4.300000190734863 1.0 0.0
4.400000095367432 1.0 0.0
4.5 1.0 0.0
4.599999904632568 1.0 0.0
4.699999809265137 1.0 0.0
4.800000190734863 1.0 0.0
4.900000095367432 1.0 0.0
5.0 0.8999999761581421 0.0
5.0 0.800000011920929 0.0
5.0 0.699999988079071 0.0
5.0 0.6000000238418579 0.0
5.0 0.5 0.0
5.0 0.4000000059604645 0.0
5.0 0.30000001192092896 0.0
5.0 0.20000000298023224 0.0
5.0 0.10000000149011612 0.0
4.900000095367432 0.0 0.0
4.800000190734863 0.0 0.0
4.699999809265137 0.0 0.0
4.599999904632568 0.0 0.0
4.5 0.0 0.0
4.400000095367432 0.0 0.0
4.300000190734863 0.0 0.0
4.199999809265137 0.0 0.0
4.099999904632568 0.0 0.0
4.0 0.0 0.0
3.9000000953674316 0.0 0.0
3.799999952316284 0.0 0.0
3.700000047683716 0.0 0.0
3.5999999046325684 0.0 0.0
3.5 0.0 0.0
3.4000000953674316 0.0 0.0
3.299999952316284 0.0 0.0
3.200000047683716 0.0 0.0
3.0999999046325684 0.0 0.0
3.0 0.0 0.0
2.9000000953674316 0.0 0.0
2.799999952316284 0.0 0.0
2.700000047683716 0.0 0.0
2.5999999046325684 0.0 0.0
2.5 0.0 0.0
2.4000000953674316 0.0 0.0
2.299999952316284 0.0 0.0
2.200000047683716 0.0 0.0
2.0999999046325684 0.0 0.0
2.0 0.0 0.0
1.899999976158142 0.0 0.0
1.7999999523162842 0.0 0.0
1.7000000476837158 0.0 0.0
1.600000023841858 0.0 0.0
1.5 0.0 0.0
1.399999976158142 0.0 0.0
1.2999999523162842 0.0 0.0
1.2000000476837158 0.0 0.0
1.100000023841858 0.0 0.0
1.0 0.0 0.0
0.8999999761581421 0.0 0.0
0.800000011920929 0.0 0.0
0.699999988079071 0.0 0.0
0.6000000238418579 0.0 0.0
0.5 0.0 0.0
0.4000000059604645 0.0 0.0
0.30000001192092896 0.0 0.0
0.20000000298023224 0.0 0.0
0.10000000149011612 0.0 0.0
0.0 0.10000000149011612 0.0
0.0 0.20000000298023224 0.0
0.0 0.30000001192092896 0.0
0.0 0.4000000059604645 0.0
0.0 0.5 0.0
0.0 0.6000000238418579 0.0
0.0 0.699999988079071 0.0
0.0 0.800000011920929 0.0
0.0 0.8999999761581421 0.0
0.7496038675308228 0.5164291858673096 0.0
1.3451675176620483 0.5190238952636719 0.0
1.9462687969207764 0.4963642954826355 0.0
4.456614971160889 0.5060901641845703 0.0
3.864220380783081 0.4866538345813751 0.0
3.249823808670044 0.482722669839859 0.0
2.6500000953674316 0.5 0.0
0.3810288906097412 0.399004191160202 0.0
2.308779239654541 0.3797946870326996 0.0
1.0499999523162842 0.6625000238418579 0.0
1.644740104675293 0.6598879098892212 0.0
4.150000095367432 0.3375000059604645 0.0
3.555316209793091 0.3343118131160736 0.0
2.9446933269500732 0.3401789665222168 0.0
1.6342840194702148 0.3290160894393921 0.0
1.0591840744018555 0.33908534049987793 0.0
2.9654481410980225 0.6753292679786682 0.0
3.5534629821777344 0.6835107207298279 0.0
4.153462886810303 0.6835107207298279 0.0
2.2139804363250732 0.6805098056793213 0.0
0.4914395809173584 0.6739721894264221 0.0
4.691666603088379 0.6916666626930237 0.0
4.691666603088379 0.3083333373069763 0.0
2.4872219562530518 0.7236665487289429 0.0
0.6240421533584595 0.2677222192287445 0.0
2.0697431564331055 0.2657754421234131 0.0
2.5389034748077393 0.26082900166511536 0.0
0.8147311806678772 0.7450684309005737 0.0
1.2897310256958008 0.743314266204834 0.0
1.8853894472122192 0.7450258731842041 0.0
4.382374286651611 0.23655959963798523 0.0
3.910269021987915 0.25668570399284363 0.0
3.1838724613189697 0.25397706031799316 0.0
1.398239254951477 0.2614254057407379 0.0
3.201760768890381 0.7385746240615845 0.0
3.8017609119415283 0.7385746240615845 0.0
4.39177942276001 0.7466779351234436 0.0
0.25301694869995117 0.7458874583244324 0.0
2.7258167266845703 0.7600342631340027 0.0
0.84163498878479 0.2263137847185135 0.0
0.22429518401622772 0.22429518401622772 0.0
2.7605957984924316 0.22504857182502747 0.0
1.8330284357070923 0.2150011658668518 0.0
0.2192869633436203 0.5323538780212402 0.0
4.7908525466918945 0.5038931369781494 0.0
2.466000556945801 0.5376454591751099 0.0
3.7061264514923096 0.17723728716373444 0.0
3.3929696083068848 0.20266839861869812 0.0
1.4905184507369995 0.7937026619911194 0.0
1.2104878425598145 0.20361483097076416 0.0
3.9895122051239014 0.7963851690292358 0.0
3.389512300491333 0.7963851690292358 0.0
0.5652223825454712 0.5070380568504333 0.0
0.44509074091911316 0.19716571271419525 0.0
2.1318352222442627 0.5042122602462769 0.0
1.548349142074585 0.4954715371131897 0.0
3.050636053085327 0.5004673004150391 0.0
0.9511125087738037 0.498258113861084 0.0
3.651650905609131 0.5045284628868103 0.0
4.248488903045654 0.4980509281158447 0.0
1.1537858247756958 0.49593159556388855 0.0
4.050199031829834 0.49993085861206055 0.0
3.464722156524658 0.509624183177948 0.0
1.749653697013855 0.5001751780509949 0.0
2.851828098297119 0.5057260394096375 0.0
2.359710216522217 0.1888567954301834 0.0
2.0499017238616943 0.8199846148490906 0.0
0.6430503129959106 0.8181284070014954 0.0
4.560274600982666 0.1724673956632614 0.0
4.55863094329834 0.8299665451049805 0.0
2.321284055709839 0.8242537379264832 0.0
4.815218925476074 0.8345447778701782 0.0
4.837246894836426 0.16590170562267303 0.0
0.9682294130325317 0.8331464529037476 0.0
1.730908751487732 0.827606201171875 0.0
4.220076560974121 0.17516615986824036 0.0
3.02066969871521 0.18326662480831146 0.0
1.5634372234344482 0.17044226825237274 0.0
3.035303831100464 0.8294908404350281 0.0
3.627507209777832 0.8360387086868286 0.0
4.2312469482421875 0.8315803408622742 0.0
4.618130683898926 0.5361976027488708 0.0
0.40311703085899353 0.8369210362434387 0.0
1.1473191976547241 0.8458209037780762 0.0
4.052680969238281 0.15417908132076263 0.0
2.020958423614502 0.6394158005714417 0.0
0.662188708782196 0.6447370648384094 0.0
4.5115838050842285 0.3538685142993927 0.0
1.0221220254898071 0.15309639275074005 0.0
0.3837882876396179 0.5515117049217224 0.0
3.548090934753418 0.15800617635250092 0.0
1.4348299503326416 0.6465393304824829 0.0
3.765170097351074 0.3534606993198395 0.0
3.3348300457000732 0.3534606993198395 0.0
1.2546738386154175 0.36384353041648865 0.0
3.945326089859009 0.636156439781189 0.0
3.3412928581237793 0.637225866317749 0.0
2.1904795169830322 0.17066854238510132 0.0
0.16392111778259277 0.38331863284111023 0.0
2.87723445892334 0.8265392184257507 0.0
4.8459792137146 0.6499902606010437 0.0
4.845625400543213 0.34837812185287476 0.0
2.771622896194458 0.38129922747612 0.0
4.5222978591918945 0.6578375697135925 0.0
2.604464530944824 0.8240283727645874 0.0
1.8544400930404663 0.3751189708709717 0.0
0.8566747903823853 0.38255012035369873 0.0
2.2932615280151367 0.5369129776954651 0.0
2.620572805404663 0.6496497392654419 0.0
0.7172287106513977 0.1490369737148285 0.0
0.1410960853099823 0.8303417563438416 0.0
1.7142322063446045 0.142862930893898 0.0
2.6314175128936768 0.14492936432361603 0.0
1.9832650423049927 0.1408119648694992 0.0
2.445650577545166 0.370038241147995 0.0
2.885042667388916 0.1455758661031723 0.0
0.13937503099441528 0.6546638011932373 0.0
0.9110832810401917 0.6349053978919983 0.0
3.088575839996338 0.3613528311252594 0.0
4.296638011932373 0.3563385307788849 0.0
1.1930090188980103 0.6355591416358948 0.0
1.788455843925476 0.6387236714363098 0.0
4.006990909576416 0.3644408583641052 0.0
1.4459187984466553 0.39242905378341675 0.0
4.354081153869629 0.6075709462165833 0.0
3.7540812492370605 0.6075709462165833 0.0
3.1591691970825195 0.6018876433372498 0.0
2.7615907192230225 0.6205627918243408 0.0
2.36276912689209 0.6735464930534363 0.0
1.3681535720825195 0.8630191683769226 0.0
3.8318464756011963 0.1369808316230774 0.0
3.275517463684082 0.10712132602930069 0.0
0.5630941987037659 0.12814241647720337 0.0
1.3237862586975098 0.10638008266687393 0.0
3.2733232975006104 0.8705052733421326 0.0
3.8733232021331787 0.8705052733421326 0.0
2.0396511554718018 0.38928428292274475 0.0
2.2168734073638916 0.8508136868476868 0.0
0.5163488388061523 0.3409615159034729 0.0
0.6547463536262512 0.3955095112323761 0.0
1.9480526447296143 0.8710126876831055 0.0
4.689375877380371 0.13700176775455475 0.0
4.698264122009277 0.8675068616867065 0.0
0.7578787803649902 0.8698469996452332 0.0
2.479548454284668 0.13692785799503326 0.0
2.4562506675720215 0.8735422492027283 0.0
2.171211004257202 0.3573116958141327 0.0
3.5117530822753906 0.853193998336792 0.0
4.107914924621582 0.8658969402313232 0.0
2.640726327896118 0.354434996843338 0.0
4.346996307373047 0.1279495507478714 0.0
0.3128283619880676 0.11246757209300995 0.0
0.136248379945755 0.12152919173240662 0.0
4.453908443450928 0.8629162907600403 0.0
1.6064813137054443 0.8679171800613403 0.0
0.3380795121192932 0.6626779437065125 0.0
0.5102446675300598 0.875635027885437 0.0
0.7425088882446289 0.2989330589771271 0.0
3.1349449157714844 0.10448489338159561 0.0
1.3287748098373413 0.6181886196136475 0.0
3.871795415878296 0.38215625286102295 0.0
3.229135036468506 0.3810797333717346 0.0
0.28971707820892334 0.8759857416152954 0.0
0.9214505553245544 0.11992674320936203 0.0
1.9219478368759155 0.6237660050392151 0.0
1.530794620513916 0.29603153467178345 0.0
3.072223663330078 0.7044162750244141 0.0
3.6722235679626465 0.7044162750244141 0.0
[...]
POINT_DATA 715
SCALARS Psi double
LOOKUP_TABLE default
0.0
0.0
1.0
1.0
1.0
1.0
1.0
1.0
1.0
1.0
1.0
1.0
1.0
1.0
1.0
1.0
1.0
1.0
1.0
1.0
1.0
1.0
1.0
1.0
1.0
1.0
1.0
1.0
1.0
1.0
1.0
1.0
1.0
1.0
1.0
1.0
1.0
1.0
1.0
1.0
1.0
1.0
1.0
1.0
1.0
1.0
1.0
1.0
1.0
1.0
1.0
1.0
1.0
0.9192578993234269
0.8655790744914653
0.7643968451432964
0.6281104911020756
0.4708398749065593
0.31242857335240926
0.17410037999557104
0.07144448805309604
0.01881847215366484
0.0
0.0
0.0
0.0
0.0
0.0
0.0
0.0
0.0
0.0
0.0
0.0
0.0
0.0
0.0
0.0
0.0
0.0
0.0
0.0
0.0
0.0
0.0
0.0
0.0
0.0
0.0
0.0
0.0
0.0
0.0
0.0
0.0
0.0
0.0
0.0
0.0
0.0
0.0
0.0
0.0
0.0
-0.0
0.0
0.0
0.0
0.0
0.0
0.0
0.027348993310477843
0.1076948504265546
0.20923046797072617
0.31087385939510714
0.41246445490169487
0.5108190462164875
0.602637884416038
0.678450705027671
0.641640780350282
0.5300487813814488
0.543564998944397
0.5008418867231801
0.49392026006937423
0.4691399108687467
0.4713511946446569
0.5099889699801887
0.3204056441030312
0.3077307531956837
0.7747274085358159
0.7662007686725816
0.22689503580098955
0.2229426454858912
0.2453644381072343
0.2272822089697921
0.25484738583859023
0.793192047441555
0.7912777442380381
0.7885372829842068
0.7977680288203564
0.7598817672879834
0.786017572365729
0.17661527798982368
0.8542793019293465
0.15683737921876822
0.14403637123406962
0.13919436083813058
0.8816014955163878
0.8776073185388108
0.8761843742077743
0.09118433027120912
0.12181087963713252
0.1227633687768491
0.13541820489940015
0.8696880640277412
0.8638854526530548
0.8691044673607945
0.7934728495317843
0.9003801918356762
0.1105954200322415
0.11127158202397823
0.09558897429647784
0.08211297300934024
0.46456852238536045
0.4797041345114847
0.5729339643500421
0.03985412751628627
0.062466284850625116
0.9299193666693637
0.06977755225324142
0.926391274401189
0.9270230382371147
0.49545033668006216
0.07117596490571887
0.5150651735707252
0.5012576371077775
0.5071996743235404
0.509852772078798
0.5011448139095902
0.4846394631985163
0.50691828580814
0.49028843800921207
0.5121199640954768
0.5075966274256409
0.5195400265849708
0.056912205647797226
0.953650661846441
0.9590464219982611
0.036737569084817505
0.9536774173845682
0.9593742446690721
0.9423964073209393
0.028217419674286814
0.9639114200027525
0.9568368876972011
0.04008595915295724
0.05192638261028819
0.040721934963004545
0.965492387705089
0.9616462437168662
0.9584731258065071
0.5403161853890877
0.9786719698763165
0.970931218259759
0.02956847662974038
0.7347787975581225
0.7344465159963215
0.24391561443835105
0.03679698280524976
0.5292885020515521
0.028901850308527714
0.7488551522930571
0.25075047248167087
0.2558341074991859
0.2870058628979202
0.7173290925206971
0.7246486296577588
0.04388769124407642
0.29479709386758496
0.9645554402226634
0.714631410105868
0.22746920392681824
0.31161748714714277
0.7433717525968104
0.9599018254891585
0.2989021889762269
0.32230264215432414
0.5706223012807036
0.754853770589912
0.03726343105873567
0.82259648058603
0.025425807946758368
0.026961025240684045
0.02483064462066145
0.2934297761276708
0.026048759386172876
0.5837990532977733
0.7316638603677262
0.2752709244193537
0.2519421794384093
0.7337849270284396
0.7330921066923441
0.26879223369933997
0.329544297979045
0.6670001565586375
0.6728403508613419
0.6741922287047833
0.7098381984569198
0.7865096313075777
0.9792087343569941
0.017544170772814078
0.0018397225667555256
0.021263609296942678
0.0011076376218071473
0.9815641810542555
0.9824890930035762
0.32284682575405893
0.9760794533672538
0.24963420636766726
0.33448325237085275
0.9853636369082523
0.019585469931166725
0.9788911582448728
0.9849577279722729
0.022978687824144466
0.9841608872422658
0.27249142255539716
0.9700095316693179
0.9804323200506858
0.27002571500011546
0.0057029609733888756
0.006011595909395815
0.022590014205505268
0.9774928353759649
0.9812531499063
0.6942322795592624
0.9922289649842913
0.1999807327171577
0.0030248261288527358
0.7056821645403387
0.2965818100562661
0.3028210418332047
1.0187569826441885
0.021837709055428648
0.7095880070492315
0.1812049076104015
0.830340355543644
0.8188164844602748
0.8156754569697544
1.00576346996873
0.6891705227505233
0.004109689295750865
0.9947912116643408
0.9944050517154658
0.15506247126296713
0.3240092193393532
0.18215930107281103
0.9957619264944685
0.003637823945261411
0.8691705121842941
0.2915317028300436
0.12749951233933932
0.34094466225938697
0.011449416574190876
0.1619969870564385
0.9905899195224941
0.9901146291103309
0.12520451995276746
0.18989092284690556
-0.0015307971788244776
0.44133735611689284
-0.003469978186295581
0.40476586272291953
0.19232729131615534
-0.003726223342154086
0.0007508830760247719
0.40962537731290766
0.42824897036704923
0.41432784257849453
0.5925153717869894
0.5910340236838623
0.003096922344113066
0.5523072603299013
0.0016014804882992849
0.6951530031510832
0.1283696095241961
0.6021279803382121
1.0011372885844647
0.8057505607741922
0.1732269101658981
0.8040662231186884
0.18202734787421693
0.20021424670937532
0.8170272198091191
0.9983418149495464
0.0015987954938966535
0.1309796632148587
0.8664925709331525
0.1331202883261631
0.330481526085826
0.6186609705876364
0.828207467033346
0.10519318695509329
0.40830294730579836
0.4166964975226105
0.6118646736208809
0.5985721404240777
0.5923127725609729
0.020349067351181756
0.6538768086466784
0.13745669412458184
0.8665052525033893
0.8624751514450394
0.5958358220918366
0.4077318529328267
0.42377812682072974
0.0037446357119012936
0.5895747618067283
0.8686715567986378
0.133197322598306
1.006348785826589
0.1944924142858908
0.5743063208191866
0.6579364237291926
0.4056914738328371
0.8627122029280433
0.5815092881798418
0.9992321584117893
0.4511833064933921
0.988412655486338
0.9876135818682641
0.8963717524139098
0.8673393845057251
0.9584564827246057
0.005967965315765257
0.42401395965866967
0.708829261731733
0.5768024098359844
0.6824620530923518
0.36670861565816687
0.10396024936132645
-0.0013923602341769736
0.4396298862114687
0.21144081114966198
0.8403777804427233
0.5647494296061207
0.44090376532512005
0.4469995085316502
0.8513381358547502
0.8765815730313857
0.1373511148934392
0.122002415619587
0.8688390816434572
0.4098733804372719
0.9990975983938787
0.14237884592594888
0.9054722674156019
0.9065215712083271
0.357924451117295
0.9177745083996416
1.0040507018364402
0.11339512981833202
0.14224373089743822
0.6769002536576411
0.32397151593214885
0.678352402507217
0.689956919084907
0.08427965662421705
0.6696618074250771
0.33433476389600486
0.33431907152494383
0.006507320249914627
0.4741077559050885
0.26242419434673214
0.7385755720600796
0.7659788012709372
0.33940066421991877
0.8773402121112229
0.6671578687040202
0.6624527929470863
0.635743080274205
0.0076072465541367155
0.007439601609876863
0.1302005894886656
0.8238183462224047
-0.003057072638600494
0.9160083192257868
0.9159955400427984
0.848256224544305
-0.003376085588012237
-0.002776918638958597
0.19014111639670875
0.34118454775209217
0.0002251399806832554
1.0004340994999787
0.3369779197134082
0.8874409841865145
1.0001864922914385
0.8834635133836641
0.11914288197376968
1.0057965369876125
-0.0014760066063310743
0.10254681173664952
0.9955001539753255
-0.0004583688946739625
0.3175191580551479
0.0005944742576154781
0.6914144957805132
0.00366264976983254
1.0019890097058852
1.004417041146517
0.11148752094324693
0.493145829007822
0.15031128159557913
0.9977913665289617
0.8864617313529819
0.9988940216145481
0.32796643630459765
0.9993677284471666
1.0027989705074678
0.13330558825413813
0.08772148265107527
6.783409469643882e-05
0.2796451604866952
0.6488422071406775
0.5856573605624011
0.4122324770501842
0.5627063610575074
1.00400190145502
0.25554038306822774
0.5713006628437777
0.999924859252599
0.00034486050137938994
-0.0013336504738999568
0.19362553076752617
0.4071576690372185
0.5787067409049444
-0.001821298852414764
0.9212573702303736
1.0052018945335062
0.8847975710039745
0.0906362904858043
0.9147907964904343
0.9084315652579349
0.6345938007561236
0.07735767666579006
0.8960597899711888
-0.001894273195189497
0.27917535436592666
0.0026154491145942557
0.9331266287527195
0.06670525934726111
-0.0014820905516614933
0.5886472755876285
0.5399680748113862
1.0042486379726738
1.0154459200746666
1.0015012123248992
0.0012954674635901736
0.43351843926666633
0.6801260806945661
0.6879029735854563
0.681942555874203
0.31920112234855746
0.31532444762225537
0.3305537587324508
0.9440055117294229
1.035379850339057
0.9974028689887675
0.9947324794486444
0.9634696887002927
0.6847734570495959
0.7573002423271086
-0.0019993555833823767
0.06494613846381683
0.7912312313584757
0.7062805232567867
0.23037604951323926
0.8726694508747042
0.0846979367985369
0.07544321740531636
0.7185753260472713
0.6203754552383577
0.434456834233258
0.9980860185930079
1.0012275206790444
0.7740341921062794
0.10035167261994911
0.9312272918138443
0.21206604288281486
0.9524832348220013
0.05323383700357749
1.000350485340942
0.0021542828326853608
0.36660190856421776
0.6127381088653538
0.36149245957473974
0.8332904909364023
0.04147396912796921
0.5915284785703628
0.37552772308166016
0.8392086400746973
-0.0011670282589080155
-0.003537053749158903
0.1894492984316641
0.17452898446683093
0.056202410581101495
0.10395116269941813
0.9457073070246981
0.8419329273035655
0.1593038808341291
0.8016574508870239
0.2034531821208416
0.9068476190975489
0.9032695494358494
0.9029405753751663
-0.00465036802497218
0.9413147003665666
0.3587269350747398
0.21654116811019225
1.0004786267570518
0.16866546819583003
0.5588701460247123
0.7140489377951742
0.6109593298028472
0.6411058668436577
0.04319034854352644
0.9524637361346652
0.9515062407229378
0.05542767630329849
0.6962945383924819
-0.006150839274809228
1.0058609791698627
1.0036866621581464
0.03720130778592543
0.04162918561142276
0.8949207199256088
0.25191705322073266
0.9481414476404982
0.45049750792116905
0.8601628441572979
-0.00039827729750514204
0.6445886113313312
0.35471088523666944
0.3661606770494269
1.001106757702045
-0.0020882113805675024
0.5573406360377485
-0.007555463543260282
0.4132265505004093
0.06738720410528896
-0.0011411627646589445
0.2350609353027478
0.6271443152489388
0.7203126837977851
0.7844547595607569
0.9501420553088327
0.04754812678893895
0.2412042982339631
0.1839664179728161
0.7698123603759728
1.0044851902879404
0.2331254277210135
0.06829813584943413
0.18452637797877386
0.05342132277752722
0.9304620265385236
0.04635062047957623
0.20949708613087428
0.7867060259815676
0.791166447082183
0.8008269239962854
0.4076487199301014
1.0058783504587734
0.36981846692056275
0.9179847182400495
-0.0012329498328287464
0.05081847132768158
0.039762605341937936
0.597537311917499
0.07002258830122883
0.0020966674188118346
0.05988050968742464
0.08157837043751338
0.41358398888191855
0.5616819534357479
0.02997007802802483
0.1941057847022914
-0.001822327864747569
1.0000805927822132
0.9189158635987615
0.4338377164333059
0.570310551030777
0.6275889305844244
0.9393119863014432
0.051139592264341775
0.05019229932988957
0.998244730209781
0.030299857820139567
0.5060820820250339
0.32551620067133186
0.11870093131874787
-0.0008487090355309026
0.7918348506834239
0.9494499088120996
0.1444207132291816
0.12559022510709486
0.8544413961831746
1.001736394321331
0.044722827573265116
0.9437185550599736
0.9431484591839445
0.4444507797527254
0.4429011835138163
1.0008078831322673
0.2141639747889581
0.3346772553520509
0.3743204571195526
0.00026382723542210093
0.9677590947559856
0.968676550936849
0.24455593786491453
0.5970882325683293
0.8323815185100789
0.8350464525502261
0.18890276781911275
0.8310649090566459
0.2323294911377768
0.882040536678073
0.8807441341891279
0.6196662167617952
0.8946427501093713
0.6197901826318485
0.051141845442747046
0.9505869529222384
0.39324413220905124
0.6235115974572729
0.37604624482563637
-0.007226336534041564
0.3126962057392158
0.05683198118663353
-0.000498463880265102
0.567366621789504
0.11530332582134595
0.22026859277630642
0.08609454561619417
0.8002919570829531
0.8744580290194247
0.9760492805682942
0.5856861484812015
0.0032583298035711735
0.40427056050955323
0.07769500920065181
0.9992177336948097
1.000215951492159
-0.0009758964995117256
0.05792946585803878
0.9459790809570118
0.0003983234399401898
-0.004217213054987468
0.23330167509603866
0.7683995129726594
0.4368649198161906
1.0028402198605515
0.22347675483273002
0.8200020312862012
0.1979501550749227
0.8092412161959217
0.19060597150074332
0.9787105913806863
0.0016326836065252163
0.4095075181006114
1.0008868753802238
0.9586206670285752
0.043388120079709026

SCALARS Omega double
LOOKUP_TABLE default
-7.676492341032072
-1.1851463240911182
8.570250420344589
15.92019402589683
36.51095227878455
-6.477750900921938
2.423300274131532
-4.464892576833734
-0.4279286119179833
1.923152790984514
0.04781082998585794
-0.6376509163971825
0.4851755662107132
1.145642538677137
0.23168743856735266
0.8260777431400866
0.5435027876168141
0.7945286199185939
1.5518496751857993
-0.09324028842576099
1.4081112043254695
1.2415195521753235
-0.42516358368039175
0.48747808993854325
1.0668025463477973
1.0399363512394513
0.7587836163098204
0.2405437147923351
0.46000065775487975
1.4226807641197698
1.1089866002685866
0.1606625099676654
1.330742749108969
0.8585417704380652
0.4157887784594467
1.1196974899335534
0.7528187782783643
0.3780923280211264
1.3152320768646932
0.6770944529802195
1.3845976419485346
0.6994712766996931
0.4330317507173746
0.35378240929796195
0.9463607356284891
0.7281497642962933
2.138655735034617
0.4662102138928298
-0.4741284215644367
2.1725981355189856
0.8767167580328752
1.8732206628449746
9.589911788377433
-7.809253349725301
0.5527035885642427
2.820485858224539
1.612869692201563
-0.10059986337026597
-1.1154707143738571
-2.6024899269695267
-3.2670290140066673
-1.5795817616641095
-0.25913953132972245
-0.6630857832078518
-1.0645823515241564
-0.127179504085083
-0.7096871677940257
-0.3780671255609128
-1.0662809866985823
-0.8159354506771461
-0.30855296232047313
-0.7173027648299763
-0.4570676583665689
0.10150998133241766
-1.7688477695726748
-0.6467757414859758
0.3898100252973062
-1.4979173441621494
-0.5999927122633167
-0.29529355353713815
-1.1177296887587487
-0.8112080167618987
-0.4256190374779816
-1.1117498760046796
-0.8935545403235178
-1.4289665803379739
-0.161042127479896
-0.5565003033212625
-0.9781648453505023
-1.0943165303632
-0.7443938773808134
0.6964900926983492
-1.4024776004786192
-1.2303949042175646
0.21271426980918282
-0.8526368825015843
-1.11788009511878
-0.1609088722674063
-0.556426751056928
-1.526293712241262
-1.530980476454171
-0.39366426804533483
-1.9063941535875955
-0.4861277833847865
-2.0723772302661456
-0.49890012104455106
-0.14006527872893404
-2.069532440807909
-1.9109759751756508
-0.8190361779036972
0.7511205683899705
-4.592711896668734
2.64580766376137
0.3120399031647017
-0.025411940204652223
-0.8569633658050662
1.6497735924258832
-5.889239632459727
-2.340344940454209
-42.608379097822834
-0.5126927890481651
0.513000947177651
0.09529836451932144
-0.09049860555002232
-0.3039212394612886
-0.24256816728489566
0.1451388453510697
-0.37594959559704494
-1.9294390666829415
3.1270156334474413
2.845698335534526
-2.9023397838523843
-2.9131229362145326
-2.606865142708178
-2.8266975771204237
-2.0462070359779982
3.110319325957452
3.1036440029323145
3.052310128830776
3.098643831173237
2.31675916160841
3.101943470302618
-3.479920482157096
3.9454553162761488
-2.585896155347648
-4.121891606742794
-4.083281909202985
5.215614219193476
4.357108122778838
4.1463414961192955
-4.792299882200656
-4.403042536486572
-4.299058566074658
-4.096342278123741
4.282489851243069
4.085745989096593
4.323835062008201
1.9686724509025155
4.623207384705834
-3.967547358951604
-1.7028366617169117
-4.717532335096986
-5.065208053593156
-1.4216012399320586
-0.20919222320072436
0.7517083053752501
-6.282600881306055
-5.455065309088784
5.060094157901492
-5.152814756360383
5.265691019247573
5.065205967869798
-1.2638588091995455
-4.899294706580237
0.20920062649053153
0.13335734258880375
0.11360350043340464
-0.1713334872307742
0.024227781267823035
-0.18336968280290436
0.06291876208886989
-0.11456164228813927
0.14363413580965717
0.19016573007622228
0.23994128689752497
-5.625128579879601
5.394584881016386
7.333036575686877
-5.7770854575815145
5.874363239641142
5.882194511213007
6.151216599876724
-5.380504420758273
5.643440905484029
5.268873869401768
-5.58569839070314
-5.4888385021423485
-6.395588194480752
6.508380086915742
5.6547326904499755
5.779524998438983
0.35779093182173616
13.252017114340251
5.604798260198915
-5.549747335711856
2.4190694244714717
2.2666068745214196
-2.618629974432054
-5.43797196857298
-2.340806517059194
-5.918905869421012
2.6983552867277987
-2.587815950411284
-2.5105028436973003
-1.8799950000801664
2.185735019810579
2.3417075962125815
-5.586434462468354
0.08634300964459077
6.053859333136434
1.9600303606137168
-2.447372002239194
-1.8540740078606828
2.4938321711255598
5.625284289525803
-1.9934649500369388
-1.2682777355790653
0.7276588903559625
2.6514453598713907
-6.109567289915745
-1.8664524274556948
-6.158938246008313
-6.125631117234554
-6.293205480553184
-2.078468298064906
-6.187347175002373
-4.517963866863114
2.4860185236632883
-2.2769031832005573
-2.5768925486492034
2.5617581996636303
2.4477509769045627
-2.407841060179649
-1.5436438713052267
1.644628482624359
1.748596946798513
1.7814529686107172
2.165007640557552
3.0405146080262546
5.713729249970057
-6.4692571881932786
-7.484338841070597
-6.641111599081765
-8.340167848374485
6.2681767612736525
6.843937362900917
-1.740017871087709
6.676269423115272
-0.913374217117654
-1.0065546510934775
6.58037879649568
-5.354695029865623
7.970898906185812
6.007954338317618
-6.133142446295596
5.59776256275864
-2.3285612109418623
5.625695978213047
7.021910052389009
-2.3250165466119874
-8.334638522277139
-10.84964516659839
-8.805223370226324
6.568230486234435
5.765286899807534
-1.0358560984172867
7.101217381034154
-2.1677250909961128
-7.833671667284676
2.2297921121729765
-2.083329834066194
-1.9923129183059858
23.70274977396029
-6.213668067736557
2.184428597108012
-3.4579594312270836
3.6560297915882973
3.4156624703541234
3.410150643028635
7.4693792015823695
1.6255762507769147
-8.22670590906601
8.35286791592923
6.828784966448779
-1.4501998240001406
-1.7514974032056807
-3.4812802095617856
6.681901738056306
-6.623231146033901
4.1394023296373765
-2.1262485564454012
-3.760266139675786
-0.4459333805661818
-6.266071491489532
3.282474769047489
7.467885671706623
5.5754111083664775
-4.288773379515245
-3.378643553032284
-9.95297588940198
-0.5237974062013159
-8.065529999879502
-1.4071263391699331
-3.2608890892507696
-8.57075144158324
-7.799762673749229
-0.9115661647017653
-0.6491529327127836
-0.8269513927496994
0.774519551651085
1.0119031776439196
-7.18318833974336
1.4430465141972122
-9.087413618091928
2.012743618769241
-4.184308931399095
-4.132525991106594
9.514315578852344
3.2983917264637013
-3.113838776403143
3.295836284981409
-3.4339770333269097
-3.2225554238122993
3.459209117589857
6.705753457517881
-6.339858826036317
-4.2474346560025085
4.154459669693503
-4.134669128110624
-1.284466685953693
1.1421181456141365
6.067250909679637
-9.747996139304481
-0.7746950562528605
-0.7319899682682686
1.1379088138196496
1.0010868356391018
0.8741747158791229
-6.701638701683737
-8.02341597116762
-3.9074696493835566
4.187491221722385
4.075434248712722
0.989815215462194
-0.9210081600014638
-0.7032435795454529
-8.74625978094859
0.9724720799781587
4.410372939876561
-4.129554659760786
9.372486033197337
-3.2643743449219627
-0.4405072865670077
0.20459082701490142
-0.9388509907433228
3.981559471805716
0.2404043634589436
8.367997223581918
-0.42816674342615363
6.586267311355388
6.134389529965311
4.541890852304166
5.4987914910482845
2.6854480125759985
-7.556976794066721
-1.288280142403186
2.1307922229165306
0.8191011346833535
1.8518304769955716
-2.178352697464466
-4.598490934596596
-10.004446728861234
-0.6235526403908985
0.7356243067007469
3.6687434186949734
0.7358608694781207
-0.5757347951053718
-0.48675396769255436
5.485872837628253
4.903875078295461
-4.061984920108604
-4.19849501712361
4.03283909638309