# vtk DataFile Version 1.0
2D Simulation C++
ASCII
DATASET UNSTRUCTURED_GRID
FIELD FieldData 1
NODES 1 2 int
715 1308

POINTS 715 double
0.0 0.0 0.0
5.0 0.0 0.0
5.0 1.0 0.0
0.0 1.0 0.0
0.10000000149011612 1.0 0.0
0.20000000298023224 1.0 0.0
0.30000001192092896 1.0 0.0
0.4000000059604645 1.0 0.0
0.5 1.0 0.0
0.6000000238418579 1.0 0.0
0.699999988079071 1.0 0.0
0.800000011920929 1.0 0.0
0.8999999761581421 1.0 0.0
1.0 1.0 0.0
1.100000023841858 1.0 0.0
1.2000000476837158 1.0 0.0
1.2999999523162842 1.0 0.0
1.399999976158142 1.0 0.0
1.5 1.0 0.0
1.600000023841858 1.0 0.0
1.7000000476837158 1.0 0.0
1.7999999523162842 1.0 0.0
1.899999976158142 1.0 0.0
2.0 1.0 0.0
2.0999999046325684 1.0 0.0
2.200000047683716 1.0 0.0
2.299999952316284 1.0 0.0
2.4000000953674316 1.0 0.0
2.5 1.0 0.0
2.5999999046325684 1.0 0.0
2.700000047683716 1.0 0.0
2.799999952316284 1.0 0.0
2.9000000953674316 1.0 0.0
3.0 1.0 0.0
3.0999999046325684 1.0 0.0
3.200000047683716 1.0 0.0
3.299999952316284 1.0 0.0
3.4000000953674316 1.0 0.0
3.5 1.0 0.0
3.5999999046325684 1.0 0.0
3.700000047683716 1.0 0.0
3.799999952316284 1.0 0.0
3.9000000953674316 1.0 0.0
4.0 1.0 0.0
4.099999904632568 1.0 0.0
4.199999809265137 1.0 0.0
4.300000190734863 1.0 0.0
4.400000095367432 1.0 0.0
4.5 1.0 0.0
4.599999904632568 1.0 0.0
4.699999809265137 1.0 0.0
4.800000190734863 1.0 0.0
4.900000095367432 1.0 0.0
5.0 0.8999999761581421 0.0
5.0 0.800000011920929 0.0
5.0 0.699999988079071 0.0
5.0 0.6000000238418579 0.0
5.0 0.5 0.0
5.0 0.4000000059604645 0.0
5.0 0.30000001192092896 0.0
5.0 0.20000000298023224 0.0
5.0 0.10000000149011612 0.0
4.900000095367432 0.0 0.0
4.800000190734863 0.0 0.0
4.699999809265137 0.0 0.0
4.599999904632568 0.0 0.0
4.5 0.0 0.0
4.400000095367432 0.0 0.0
4.300000190734863 0.0 0.0
4.199999809265137 0.0 0.0
4.099999904632568 0.0 0.0
4.0 0.0 0.0
3.9000000953674316 0.0 0.0
3.799999952316284 0.0 0.0
3.700000047683716 0.0 0.0
3.5999999046325684 0.0 0.0
3.5 0.0 0.0
3.4000000953674316 0.0 0.0
3.299999952316284 0.0 0.0
3.200000047683716 0.0 0.0
3.0999999046325684 0.0 0.0
3.0 0.0 0.0
2.9000000953674316 0.0 0.0
2.799999952316284 0.0 0.0
2.700000047683716 0.0 0.0
2.5999999046325684 0.0 0.0
2.5 0.0 0.0
2.4000000953674316 0.0 0.0
2.299999952316284 0.0 0.0
2.200000047683716 0.0 0.0
2.0999999046325684 0.0 0.0
2.0 0.0 0.0
1.899999976158142 0.0 0.0
1.7999999523162842 0.0 0.0
1.7000000476837158 0.0 0.0
1.600000023841858 0.0 0.0
1.5 0.0 0.0
1.399999976158142 0.0 0.0
1.2999999523162842 0.0 0.0
1.2000000476837158 0.0 0.0
1.100000023841858 0.0 0.0
1.0 0.0 0.0
0.8999999761581421 0.0 0.0
0.800000011920929 0.0 0.0
0.699999988079071 0.0 0.0
0.6000000238418579 0.0 0.0
0.5 0.0 0.0
0.4000000059604645 0.0 0.0
0.30000001192092896 0.0 0.0
0.20000000298023224 0.0 0.0
0.10000000149011612 0.0 0.0
0.0 0.10000000149011612 0.0
0.0 0.20000000298023224 0.0
0.0 0.30000001192092896 0.0
0.0 0.4000000059604645 0.0
0.0 0.5 0.0
0.0 0.6000000238418579 0.0
0.0 0.699999988079071 0.0
0.0 0.800000011920929 0.0
0.0 0.8999999761581421 0.0
0.7496038675308228 0.5164291858673096 0.0
1.3451675176620483 0.5190238952636719 0.0
1.9462687969207764 0.4963642954826355 0.0
4.456614971160889 0.5060901641845703 0.0
3.864220380783081 0.4866538345813751 0.0
3.249823808670044 0.482722669839859 0.0
2.6500000953674316 0.5 0.0
0.3810288906097412 0.399004191160202 0.0
2.308779239654541 0.3797946870326996 0.0
1.0499999523162842 0.6625000238418579 0.0
1.644740104675293 0.6598879098892212 0.0
4.150000095367432 0.3375000059604645 0.0
3.555316209793091 0.3343118131160736 0.0
2.9446933269500732 0.3401789665222168 0.0
1.6342840194702148 0.3290160894393921 0.0
1.0591840744018555 0.33908534049987793 0.0
2.9654481410980225 0.6753292679786682 0.0
3.5534629821777344 0.6835107207298279 0.0
4.153462886810303 0.6835107207298279 0.0
2.2139804363250732 0.6805098056793213 0.0
0.4914395809173584 0.6739721894264221 0.0
4.691666603088379 0.6916666626930237 0.0
4.691666603088379 0.3083333373069763 0.0
2.4872219562530518 0.7236665487289429 0.0
0.6240421533584595 0.2677222192287445 0.0
2.0697431564331055 0.2657754421234131 0.0
2.5389034748077393 0.26082900166511536 0.0
0.8147311806678772 0.7450684309005737 0.0
1.2897310256958008 0.743314266204834 0.0
1.8853894472122192 0.7450258731842041 0.0
4.382374286651611 0.23655959963798523 0.0
3.910269021987915 0.25668570399284363 0.0
3.1838724613189697 0.25397706031799316 0.0
1.398239254951477 0.2614254057407379 0.0
3.201760768890381 0.7385746240615845 0.0
3.8017609119415283 0.7385746240615845 0.0
4.39177942276001 0.7466779351234436 0.0
0.25301694869995117 0.7458874583244324 0.0
2.7258167266845703 0.7600342631340027 0.0
0.84163498878479 0.2263137847185135 0.0
0.22429518401622772 0.22429518401622772 0.0
2.7605957984924316 0.22504857182502747 0.0
1.8330284357070923 0.2150011658668518 0.0
0.2192869633436203 0.5323538780212402 0.0
4.7908525466918945 0.5038931369781494 0.0
2.466000556945801 0.5376454591751099 0.0
3.7061264514923096 0.17723728716373444 0.0
3.3929696083068848 0.20266839861869812 0.0
1.4905184507369995 0.7937026619911194 0.0
1.2104878425598145 0.20361483097076416 0.0
3.9895122051239014 0.7963851690292358 0.0
3.389512300491333 0.7963851690292358 0.0
0.5652223825454712 0.5070380568504333 0.0
0.44509074091911316 0.19716571271419525 0.0
2.1318352222442627 0.5042122602462769 0.0
1.548349142074585 0.4954715371131897 0.0
3.050636053085327 0.5004673004150391 0.0
0.9511125087738037 0.498258113861084 0.0
3.651650905609131 0.5045284628868103 0.0
4.248488903045654 0.4980509281158447 0.0
1.1537858247756958 0.49593159556388855 0.0
4.050199031829834 0.49993085861206055 0.0
3.464722156524658 0.509624183177948 0.0
1.749653697013855 0.5001751780509949 0.0
2.851828098297119 0.5057260394096375 0.0
2.359710216522217 0.1888567954301834 0.0
2.0499017238616943 0.8199846148490906 0.0
0.6430503129959106 0.8181284070014954 0.0
4.560274600982666 0.1724673956632614 0.0
4.55863094329834 0.8299665451049805 0.0
2.321284055709839 0.8242537379264832 0.0
4.815218925476074 0.8345447778701782 0.0
4.837246894836426 0.16590170562267303 0.0
0.9682294130325317 0.8331464529037476 0.0
1.730908751487732 0.827606201171875 0.0
4.220076560974121 0.17516615986824036 0.0
3.02066969871521 0.18326662480831146 0.0
1.5634372234344482 0.17044226825237274 0.0
3.035303831100464 0.8294908404350281 0.0
3.627507209777832 0.8360387086868286 0.0
4.2312469482421875 0.8315803408622742 0.0
4.618130683898926 0.5361976027488708 0.0
0.40311703085899353 0.8369210362434387 0.0
1.1473191976547241 0.8458209037780762 0.0
4.052680969238281 0.15417908132076263 0.0
2.020958423614502 0.6394158005714417 0.0
0.662188708782196 0.6447370648384094 0.0
4.5115838050842285 0.3538685142993927 0.0
1.0221220254898071 0.15309639275074005 0.0
0.3837882876396179 0.5515117049217224 0.0
3.548090934753418 0.15800617635250092 0.0
1.4348299503326416 0.6465393304824829 0.0
3.765170097351074 0.3534606993198395 0.0
3.3348300457000732 0.3534606993198395 0.0
1.2546738386154175 0.36384353041648865 0.0
3.945326089859009 0.636156439781189 0.0
3.3412928581237793 0.637225866317749 0.0
2.1904795169830322 0.17066854238510132 0.0
0.16392111778259277 0.38331863284111023 0.0
2.87723445892334 0.8265392184257507 0.0
4.8459792137146 0.6499902606010437 0.0
4.845625400543213 0.34837812185287476 0.0
2.771622896194458 0.38129922747612 0.0
4.5222978591918945 0.6578375697135925 0.0
2.604464530944824 0.8240283727645874 0.0
1.8544400930404663 0.3751189708709717 0.0
0.8566747903823853 0.38255012035369873 0.0
2.2932615280151367 0.5369129776954651 0.0
2.620572805404663 0.6496497392654419 0.0
0.7172287106513977 0.1490369737148285 0.0
0.1410960853099823 0.8303417563438416 0.0
1.7142322063446045 0.142862930893898 0.0
2.6314175128936768 0.14492936432361603 0.0
1.9832650423049927 0.1408119648694992 0.0
2.445650577545166 0.370038241147995 0.0
2.885042667388916 0.1455758661031723 0.0
0.13937503099441528 0.6546638011932373 0.0
0.9110832810401917 0.6349053978919983 0.0
3.088575839996338 0.3613528311252594 0.0
4.296638011932373 0.3563385307788849 0.0
1.1930090188980103 0.6355591416358948 0.0
1.788455843925476 0.6387236714363098 0.0
4.006990909576416 0.3644408583641052 0.0
1.4459187984466553 0.39242905378341675 0.0
4.354081153869629 0.6075709462165833 0.0
3.7540812492370605 0.6075709462165833 0.0
3.1591691970825195 0.6018876433372498 0.0
2.7615907192230225 0.6205627918243408 0.0
2.36276912689209 0.6735464930534363 0.0
1.3681535720825195 0.8630191683769226 0.0
3.8318464756011963 0.1369808316230774 0.0
3.275517463684082 0.10712132602930069 0.0
0.5630941987037659 0.12814241647720337 0.0
1.3237862586975098 0.10638008266687393 0.0
3.2733232975006104 0.8705052733421326 0.0
3.8733232021331787 0.8705052733421326 0.0
2.0396511554718018 0.38928428292274475 0.0
2.2168734073638916 0.8508136868476868 0.0
0.5163488388061523 0.3409615159034729 0.0
0.6547463536262512 0.3955095112323761 0.0
1.9480526447296143 0.8710126876831055 0.0
4.689375877380371 0.13700176775455475 0.0
4.698264122009277 0.8675068616867065 0.0
0.7578787803649902 0.8698469996452332 0.0
2.479548454284668 0.13692785799503326 0.0
2.4562506675720215 0.8735422492027283 0.0
2.171211004257202 0.3573116958141327 0.0
3.5117530822753906 0.853193998336792 0.0
4.107914924621582 0.8658969402313232 0.0
2.640726327896118 0.354434996843338 0.0
4.346996307373047 0.1279495507478714 0.0
0.3128283619880676 0.11246757209300995 0.0
0.136248379945755 0.12152919173240662 0.0
4.453908443450928 0.8629162907600403 0.0
1.6064813137054443 0.8679171800613403 0.0
0.3380795121192932 0.6626779437065125 0.0
0.5102446675300598 0.875635027885437 0.0
0.7425088882446289 0.2989330589771271 0.0
3.1349449157714844 0.10448489338159561 0.0
1.3287748098373413 0.6181886196136475 0.0
3.871795415878296 0.38215625286102295 0.0
3.229135036468506 0.3810797333717346 0.0
0.28971707820892334 0.8759857416152954 0.0
0.9214505553245544 0.11992674320936203 0.0
1.9219478368759155 0.6237660050392151 0.0
1.530794620513916 0.29603153467178345 0.0
3.072223663330078 0.7044162750244141 0.0
3.6722235679626465 0.7044162750244141 0.0
[...]
POINT_DATA 715
SCALARS Psi double
LOOKUP_TABLE default
0.0
0.0
1.0
1.0
1.0
1.0
1.0
1.0
1.0
1.0
1.0
1.0
1.0
1.0
1.0
1.0
1.0
1.0
1.0
1.0
1.0
1.0
1.0
1.0
1.0
1.0
1.0
1.0
1.0
1.0
1.0
1.0
1.0
1.0
1.0
1.0
1.0
1.0
1.0
1.0
1.0
1.0
1.0
1.0
1.0
1.0
1.0
1.0
1.0
1.0
1.0
1.0
1.0
0.918809287752706
0.8640929092769719
0.7624423823313898
0.6273915306383915
0.4725621198784943
0.3163359328441891
0.17838346374433212
0.0741753425185974
0.0196700423586391
0.0
0.0
0.0
0.0
0.0
0.0
0.0
0.0
0.0
0.0
0.0
0.0
0.0
0.0
0.0
0.0
0.0
0.0
0.0
0.0
0.0
0.0
0.0
0.0
0.0
0.0
0.0
0.0
0.0
0.0
0.0
0.0
0.0
0.0
0.0
0.0
0.0
0.0
0.0
0.0
0.0
0.0
-0.0
0.0
0.0
0.0
0.0
0.0
0.0
0.027347716778390437
0.10769140416900336
0.20922447653666193
0.31086544076531064
0.4124542854966053
0.510808403711125
0.6026274299598232
0.6784408171580255
0.6416356188265424
0.5298887627427533
0.5427228329112833
0.5008494413171899
0.49405080419892555
0.4683599451041544
0.47048167545835723
0.512151060665501
0.32036603572551287
0.311775168815242
0.7742325643818876
0.7629403668383441
0.22941948358584777
0.22397024360482198
0.24815028728526584
0.22908547518603797
0.2550073404777042
0.7913761550101175
0.7876467627700796
0.7850346123439627
0.796529698359113
0.7597931095846326
0.7834135208665678
0.1805277107892951
0.8537695923580778
0.1567693737419991
0.14700366464652476
0.1426387527140695
0.8814993778990552
0.8764342329138618
0.8740019392425223
0.09321959161838363
0.12354682765889462
0.12400619149775441
0.1362912358278433
0.8673861891773457
0.8610196004133577
0.8666333807477931
0.7934446405552386
0.8997669681620625
0.11054010877864982
0.11126704765080275
0.09797648327313911
0.0837522980276485
0.46454841896731586
0.48121297929457446
0.5745168195748219
0.04029019391435495
0.06295480864793987
0.9285858603310574
0.0699348034845031
0.9245061264610378
0.92522559691999
0.4953392509735894
0.07116200141257059
0.5159299147087281
0.5004154013534887
0.5070558647528395
0.509667405920441
0.4994836167425949
0.484413234906947
0.5066269801477497
0.48960544373718806
0.5102385129407753
0.506769121044144
0.5205526700884967
0.058522401851210604
0.9529458005234173
0.9590053736389839
0.03780899245156344
0.9526665061612276
0.9591457998349644
0.9412275104647004
0.02967950324941126
0.9639068560414846
0.955852847771282
0.04097212964479604
0.05284340455110753
0.041260552486755704
0.9649894563588453
0.9607035911962842
0.9574008929363245
0.5401706778731283
0.9786640343651705
0.9708875066243002
0.030151992107967002
0.7326415688819423
0.7343129682435586
0.24729637166758067
0.03678117069450262
0.5292319454083524
0.029108741344469388
0.7463908193140438
0.2521547872470478
0.2567668939646062
0.2874910431582066
0.7138315645087504
0.7212712739191826
0.04513940114092287
0.29478708822963856
0.9642753634679846
0.712352039424775
0.2324350396227841
0.31518108621404795
0.7405387557814319
0.9597606700884895
0.3010688973901625
0.32221508162864787
0.5716826845279089
0.7544568936098415
0.03723579438001424
0.8225850416324745
0.025910261311399056
0.027830829054592936
0.02546814487222752
0.29778526089363033
0.026633195885945593
0.5837850131375224
0.7314112364523645
0.2770311148965448
0.25464114594654397
0.7327761276628161
0.7300499700165618
0.2707815435111666
0.33026101354319193
0.6644420590142405
0.6695416830451699
0.6717635050671035
0.709333582296033
0.7859658769381943
0.9790752083999104
0.017739446771290704
0.0017332442393985267
0.021258176588659777
0.0010021856035003223
0.9811833162512645
0.9820789183560302
0.32563619856358816
0.9759142746250561
0.24956897185288468
0.33437085923492804
0.9851862639672987
0.020124963765503205
0.9784300429863961
0.9849349781103542
0.02361809296905739
0.9841358869167377
0.27620938216596913
0.9692598901792214
0.9798841116768577
0.27423034505460553
0.005780669369501308
0.006014148074983864
0.02258969546623289
0.9770286905057115
0.9809407074446157
0.6941812743720778
0.9922288640069383
0.19989231279027578
0.0029693912727139526
0.7040246871588084
0.2979596408080259
0.30371783403048985
1.0187624358045295
0.02181280958989325
0.7071416064332389
0.18262946545790698
0.8281908819422223
0.8154864460435897
0.8125589579590728
1.005984817830913
0.6889964903699726
0.004078796789924113
0.9947216859236065
0.994385213570646
0.15504653471053131
0.3275211212831092
0.1850298196236209
0.9958718390229767
0.0036130823837255714
0.8679864135386622
0.2942308232614148
0.1275243372345572
0.34092344820545206
0.011725184699773605
0.16199216267466196
0.9905062170906402
0.990110060294031
0.1282909822969248
0.19216091647148292
-0.001620876374763054
0.4445818903339687
-0.0036362846647810926
0.4047542409706499
0.1956021081582319
-0.003867346759389141
0.0006274863046600757
0.4103911597095748
0.4297296243915572
0.4136514750597394
0.592146045707234
0.5890085831490343
0.003096296782509143
0.5525995625874949
0.0016054053813783944
0.695408328528126
0.1316623813912565
0.6021025797852808
1.0012787203102242
0.802332467290849
0.17353698324524744
0.8005970176907555
0.1830609626878801
0.20143043470755564
0.8141190622078724
0.9983847345966175
0.0015155279003158922
0.13252761957558837
0.8647006832910337
0.13421253432987137
0.33046562467549645
0.6174905579805715
0.8255456274949848
0.10959618390823697
0.4086456278602468
0.4166526581408683
0.6111205052315164
0.5957054030930384
0.5902706369604849
0.02031443370994529
0.6538658220305897
0.1380748446684546
0.8638482715798365
0.8594873668372781
0.5949812691543915
0.40808210732514555
0.42399495276279875
0.0036073510300723816
0.5878725119654941
0.8680682666597487
0.13545972030648476
1.0065787481482151
0.19861265171774553
0.5741647586160059
0.6578181238992395
0.40758077213507976
0.86082652767355
0.5813098335081722
0.9994321250441903
0.4540581769561228
0.988165975845084
0.9873409775723742
0.8941342888627031
0.8672436553605928
0.9581885827956008
0.006383069034017809
0.4239445090693251
0.7078326116820256
0.5762682812991137
0.6812724031841542
0.37054643714667823
0.10593704637530298
-0.0013891653421618426
0.4403868069266888
0.21142860508648514
0.8386912263608702
0.5634207613989668
0.4402553159522581
0.44607542656881244
0.8512477102346497
0.8764340216483768
0.1390008705494468
0.12434931201361356
0.8663051756033526
0.4127474116928591
0.9991327202257599
0.14233094532842178
0.9032548567404991
0.9043079299724218
0.360757251312102
0.9167654347660377
1.0040525155031492
0.11597708789357641
0.145447476153854
0.6740452068971372
0.3249599895080295
0.6748956580459213
0.6879379066520658
0.0856170047143846
0.6670712106462614
0.3347044872783253
0.3344980881714901
0.006509031069567514
0.476307144703268
0.2632361977386847
0.734982907673539
0.7629424827683686
0.34077435218623225
0.8768092309147533
0.6638288043383346
0.6594524231455365
0.6337015838702709
0.00771137535618763
0.007532913070743189
0.13404648986878864
0.8212498008089599
-0.003178772414557044
0.9159601907425236
0.915347618407844
0.8457499701358586
-0.0035318609309186308
-0.00295078429882127
0.19010754114217795
0.34341057008475756
-8.870272119696276e-07
1.0004723103262871
0.3368576355307209
0.8851970824723753
1.0002518074204465
0.8832175538533423
0.12130407254950633
1.005964554751785
-0.0017538304749309152
0.10531368393701827
0.9953898466666344
-0.000566651846678645
0.3178032119155233
0.00060162029177298
0.6891589690809464
0.003712290395402496
1.0021354895431944
1.0045866464432993
0.112329212168558
0.4931345620222577
0.15364821099806455
0.9978472925800074
0.8859317792808027
0.9989185805937963
0.331835924098985
0.9993554118987266
1.0028104074393271
0.13342808126697572
0.0885783336931788
6.893809898867438e-05
0.2831709549065276
0.6493142805591693
0.5855670726541298
0.4122918664222314
0.5607631126677152
1.004086172129143
0.2555332002156366
0.570353658206025
1.0000016320381488
0.0002616936785098576
-0.0014163536916385903
0.19360588817815813
0.4071173615228203
0.5801553903498072
-0.0019122168303744229
0.9194038544001403
1.005428801554147
0.8847661971809653
0.09153682955049436
0.9132787982027835
0.9062489902536124
0.6350506302276964
0.0795276154123183
0.8941459102091075
-0.0018998990711601258
0.28370315910161586
0.0025921664483840564
0.9326629289839579
0.06791840667123553
-0.0015599571679993014
0.5862112737836767
0.5399333960458674
1.0043438085263654
1.0154573832695306
1.0015858916469709
0.0012859043140956371
0.4340293962592597
0.6797855911514126
0.687224995894141
0.6790173188422232
0.3212127852266457
0.3171676995162383
0.33247057376160943
0.9437687500195308
1.035385171879224
0.9973788433179135
0.9946281733751975
0.963343638162233
0.6847003547554648
0.7569997635766086
-0.002130452005109545
0.06491440859001459
0.7904834491059209
0.7042359629015478
0.2353888931448785
0.8726661674895239
0.08660328623433917
0.07679420007052008
0.7181257314550081
0.6176137318216242
0.4343180038639211
0.9981881595900695
1.0013485269788096
0.7710051218053899
0.10028854264112212
0.9304349982852989
0.21591177072007714
0.9521758658567447
0.05485490986581561
1.0004133238907857
0.0021528846193572745
0.36934895934202
0.611867113224137
0.3651441369028169
0.8332328068298802
0.042519761687239685
0.5918188575742852
0.37551244933563604
0.8362311864110903
-0.001251256804488468
-0.003668503132504177
0.18944291097248278
0.17676382299849122
0.05664218471951629
0.10628699395061499
0.9456649498891733
0.8409223082195604
0.16140492439171852
0.8013566504869093
0.20610129468076444
0.9068349835689165
0.9009435251791785
0.9006424452471388
-0.004806596032811644
0.9401315944557249
0.3586315409231965
0.2197434979087123
1.0006025297611651
0.1711513302089947
0.5573603340635799
0.7118820096245321
0.6080629524134562
0.6409495846082093
0.04345347379959116
0.9514308839812755
0.9502527550350567
0.05729819830143731
0.6962756786733265
-0.006282940016031775
1.0060970757068097
1.0038668873398826
0.03756758955252171
0.04394997247322834
0.8935528621687394
0.25183123361292925
0.9470552864149591
0.4522130656633734
0.8594063033433956
-0.0003989064172370089
0.6429117756384447
0.355257679482215
0.36626801348563387
1.0012421496160098
-0.002194944428275449
0.5573303240111755
-0.007550998080775506
0.4133172794575823
0.0674553405733417
-0.0011383328689880375
0.23661344236922377
0.6256715553436394
0.7203027336783544
0.7815189723347009
0.9496501750405505
0.04834202623487011
0.24471412486681388
0.1868255535278769
0.7696261851456206
1.0046610852938531
0.23303026820401163
0.07009412229537794
0.18761073116125043
0.05483855223123832
0.9289812620682472
0.04738936077584413
0.21068082412923916
0.7835570480204489
0.7876536430610083
0.7981991738121563
0.40753766420581894
1.0058844935138387
0.37187581918706747
0.9165435793843044
-0.001328466351947228
0.051506219504916295
0.04094243845661161
0.5980230813986266
0.07163459099393983
0.0021008102150830424
0.05987823020721047
0.08157363060032291
0.41714515016478926
0.5605563276929659
0.030746414763270915
0.19820446031623215
-0.001821781790835325
1.0001594417510737
0.918845469494123
0.43374645616994123
0.5679365710742912
0.6250841994356588
0.9383616059333676
0.051810012981263774
0.05060561286958139
0.9982309284368427
0.030911755484179616
0.5060669851802395
0.329622332533016
0.11863571249839855
-0.0009680968648903953
0.7914192470110671
0.949411755188129
0.14541140702014704
0.12687305680759212
0.8521812344062661
1.0017662177592999
0.0448567640779885
0.9424011249922455
0.9417046418931475
0.44571992046442394
0.44276821474367395
1.0009016436091345
0.21408795884332993
0.33466815064998723
0.3758255779914015
0.000271177509549783
0.9669093729378847
0.9678752128645676
0.24453277614264335
0.5944934218109257
0.8292090024025016
0.8320267640794068
0.18936912282195484
0.8300464869998005
0.2363675104036325
0.8794164014771464
0.8781649432139732
0.6194222408711773
0.8931909919925597
0.6176242243539571
0.05221223790359163
0.9504952554418633
0.394148405050002
0.6227979063042323
0.3769456590413359
-0.007504052925236895
0.3126367232961197
0.05681484001127102
-0.0006158515564609876
0.5660265406993332
0.11663797030208661
0.22032464276941222
0.08609190578337333
0.8001542242574927
0.8738233483281499
0.9756690270366201
0.5842952685828887
0.003243880811014903
0.40645465741284353
0.07766088691514442
0.9992666413623479
1.0002983157340763
-0.0010585284173318106
0.05792463272135618
0.9447741860755239
0.00037966429622682024
-0.004537309041781477
0.23532990988388217
0.7669881621706198
0.43683675655369675
1.0029737131701737
0.22780333599357394
0.8175223258099908
0.1992477082592409
0.8074590778976569
0.19244906264198727
0.9787267235984856
0.0016838822208239594
0.41299954863674315
1.000882651314137
0.9584461223764831
0.04424479854648316

SCALARS Omega double
LOOKUP_TABLE default
-7.676374119960643
-1.2007211513812563
8.547291040961493
15.92063144953083
36.51244790364422
-6.4776087894839955
2.4232784247036427
-4.467063427805471
-0.4277390211240303
1.925502271336795
0.05083478319547606
-0.6345646919305693
0.4808108310927349
1.1403209379994752
0.20084856428301248
0.825757646809698
0.5029435866570111
0.7919062980143613
1.5597746312462533
-0.10974105162321994
1.4296541250148613
1.261702655868875
-0.4756039435318866
0.4971877775141242
1.0742416585052825
1.0490898906090922
0.7451587205056313
0.2331983767095666
0.45053444575396956
1.4140352862540375
1.1055627789398625
0.13857034311440283
1.3343318094240135
0.851965765103038
0.4194229971726003
1.1433536814338725
0.760039014346981
0.38349838210854836
1.343617609075916
0.6865804433140544
1.4144317346972373
0.7155950567820476
0.4285198753515885
0.36122485478892347
0.9657690605167201
0.7449336116879351
2.1988302157532487
0.47486379038152965
-0.5061439350973638
2.2242429548271647
0.9046403528735142
1.9218473092925625
9.624097607430214
-7.716409292177697
0.49522235128316994
2.6854959675164713
1.5364464597381464
-0.08146526464544682
-0.9778924889956058
-2.467183256132308
-3.1591471140015006
-1.6748174263384044
-0.2824956988464679
-0.7064566978900645
-1.0993812178938456
-0.10444890048024917
-0.7374769025942557
-0.37649488128004543
-1.0811828760830382
-0.8281985369931811
-0.3044794011089841
-0.71971371492612
-0.4540029445301257
0.12940414518492344
-1.7878431328893716
-0.6410559284284177
0.4130944232881614
-1.512326926099843
-0.5972643855056997
-0.28073791218419225
-1.1383757095957152
-0.8215359980791439
-0.4308682165354724
-1.1399257731796795
-0.9206444597862637
-1.4778603105981085
-0.1380782468128632
-0.557481310029975
-1.0186106585737524
-1.1366606396417982
-0.7586230113348169
0.7265696881268903
-1.4380106973270361
-1.2591299238997904
0.23275508987107846
-0.8657951553241937
-1.124480457090316
-0.1408609329823511
-0.5443433020554825
-1.5209100942712557
-1.5271460123101253
-0.3765834304131915
-1.904330117488269
-0.48535888848254155
-2.069558180422951
-0.4993855238762737
-0.14149593145188977
-2.069297571270405
-1.9113111457228718
-0.8189746568313503
0.7509989253362841
-4.592814567198118
2.6457879969872136
0.3120041336253895
-0.025410750737496043
-0.856970093366669
1.6496825415606757
-5.888812423092169
-2.339440951901321
-42.60928109268381
-0.5159510338024695
0.4920405623168218
0.06328807081684089
-0.09213994859836891
-0.2883592078116403
-0.2430908962056435
0.1834465867509961
-0.3752331130887914
-1.695595025698765
3.1022966255725217
2.5750625880323983
-2.6717783959520287
-2.745241967901454
-2.391783574403773
-2.6382566879516243
-2.0220989157116667
2.928455452448028
2.8688904126401322
2.779982362637323
2.9366535121612114
2.312208437651344
2.8732251501783597
-3.2352266700224255
3.8549810987725057
-2.5884957159975674
-3.933441458908122
-3.9112575772658236
5.218083999378165
4.289546351604146
4.007144774425157
-4.689432828108997
-4.252583727216991
-4.203363400187684
-4.013254707400536
4.153679009602298
3.931320291611903
4.1677797303256385
1.9661530621241907
4.563202730569906
-3.972839949077737
-1.702584400637473
-4.62943184440653
-4.9838844194708845
-1.420616408383352
-0.17277532969135848
0.723591889436901
-6.327694895302984
-5.458510825735585
5.0290471283084806
-5.161963002656141
5.242266241736574
5.047390165440596
-1.2652289639406862
-4.898220651141689
0.18211771450938086
0.1259514172384389
0.10214201241583436
-0.17206125976530098
-0.01280845112135193
-0.1728916712766031
0.06719928404283908
-0.11598511242734469
0.0855822462445116
0.15011844668638014
0.24049620021216322
-5.662838067189718
5.449063250977543
7.333776310138523
-5.873468712391646
5.93276807905023
5.932400618350189
6.154969755315325
-5.528534437774126
5.679900335717545
5.349017945897664
-5.6476726886959625
-5.51821589417149
-6.43117514362639
6.5905119641486785
5.7576719693801675
5.848140772340474
0.28731907894995623
13.255611553668903
5.678828550608539
-5.643030992975156
2.193410748848854
2.262245727264995
-2.3519318949653996
-5.456149990441507
-2.3399488310415517
-5.984394652852631
2.514622676638006
-2.393165214015329
-2.355322214742869
-1.8097993679521274
1.929168815548054
2.1135744312742015
-5.643858643971034
0.08692227775085136
6.12504311071785
1.732163555304095
-2.156791857604387
-1.632957515179522
2.219998696012721
5.662824707165704
-1.7941094631500059
-1.267955384545176
0.667743855105714
2.5022605083466214
-6.1086546650004605
-1.8693641890809367
-6.246030328843818
-6.251718571071866
-6.431681373113547
-1.8189335673944418
-6.314871109639144
-4.5165587443356925
2.477790396420581
-2.1131555557545556
-2.3391367968326517
2.5020072208074033
2.19617604150647
-2.181781932584503
-1.4319033686026912
1.418387437893539
1.537703672293401
1.5937457522895635
2.0164020096257236
2.914859038864307
5.852292744493315
-6.595768445491735
-7.599062736142579
-6.637560990875579
-8.427968428241941
6.42137832878747
7.028566117057803
-1.5327809707254771
6.757697814142475
-0.9143066822647384
-1.0088997951022598
6.744346513338543
-5.534163932629563
8.120096928116606
6.010614435485393
-6.319994824361097
5.650196121793496
-2.071707013355938
5.747797051794891
7.190860639138763
-2.0532994767102166
-8.558692289632106
-10.848020115756691
-8.804767975363912
6.726640078238326
5.941163591675807
-1.037776118694562
7.108621218956345
-2.1712939445605346
-7.9879867887360305
2.1247241247188207
-1.891697588095553
-1.861450984659806
23.708726945932426
-6.222681247555737
1.9630140208417863
-3.3114878903831584
3.4885149793587056
3.20247101836286
3.1621408234700024
7.580200809931108
1.6211920186151165
-8.345440944368121
8.600592083663418
7.000512660989702
-1.449883434062741
-1.513458128950513
-3.2474369718386003
6.785469702596126
-6.793176061543682
4.026826696834707
-1.8953894050306894
-3.760323517321373
-0.44499141640011386
-6.456226351630763
3.282482826049483
7.680705605001567
5.57493105169513
-4.115668527940883
-3.170114449497463
-9.996704062568787
-0.3981331716553096
-8.346831312624841
-1.406814361809704
-3.0353921155890227
-8.708436373272129
-7.913321147744717
-0.8034069772896032
-0.5568433755093197
-0.7788060085828856
0.7644432056327853
0.8830746413676771
-7.429756479245684
1.3475345022382084
-9.333276619037296
1.9020370757888416
-4.0197709933164845
-4.131423534972578
9.814406321792154
3.0533032804511313
-3.0785789633176592
3.081765231193073
-3.283319063069797
-3.049441506274665
3.217986590222814
6.719811375651528
-6.539924153209764
-4.09764621775186
4.023047971414864
-4.023630604447137
-1.2761914897595736
0.9768044206817128
5.642202664716611
-9.256332013719252
-0.6896343786033319
-0.7180171474471565
1.0242653663527652
0.8580731845463717
0.7327569455622884
-6.706017278763829
-8.021905924772089
-3.8490734513076292
4.037402602080305
3.8964864804534445
0.9573005882617629
-0.8209575827604534
-0.6421156034920366
-9.111034830100106
0.8225060113935828
4.375508529225722
-3.943857159708901
9.549092036533194
-2.9997938257914725
-0.4437033478599103
0.2009888974819536
-0.8082935271624017
3.848135720159698
0.23601119804250284
8.609423343898655
-0.3314719582904197
6.80258267053643
6.312034265811354
4.418255626149204
5.496489625445769
2.953118611157189
-7.907390960713567
-1.287816066174894
1.9544828291842113
0.700524875032468
1.6628894199859856
-1.8222524594014726
-4.507919109499133
-10.001096321640214
-0.5496669301955425
0.7361668973513362
3.51967039184737
0.68053292210103
-0.5390901432233904
-0.47051060882372175
5.481821713496376
4.906142166433494
-3.947279602210675
-4.024197529400295
3.8678111015410996
-0.6960776774563069