# vtk DataFile Version 1.0
2D Simulation C++
ASCII
DATASET UNSTRUCTURED_GRID
FIELD FieldData 1
NODES 1 2 int
715 1308

POINTS 715 double
0.0 0.0 0.0
5.0 0.0 0.0
5.0 1.0 0.0
0.0 1.0 0.0
0.10000000149011612 1.0 0.0
0.20000000298023224 1.0 0.0
0.30000001192092896 1.0 0.0
0.4000000059604645 1.0 0.0
0.5 1.0 0.0
0.6000000238418579 1.0 0.0
0.699999988079071 1.0 0.0
0.800000011920929 1.0 0.0
0.8999999761581421 1.0 0.0
1.0 1.0 0.0
1.100000023841858 1.0 0.0
1.2000000476837158 1.0 0.0
1.2999999523162842 1.0 0.0
1.399999976158142 1.0 0.0
1.5 1.0 0.0
1.600000023841858 1.0 0.0
1.7000000476837158 1.0 0.0
1.7999999523162842 1.0 0.0
1.899999976158142 1.0 0.0
2.0 1.0 0.0
2.0999999046325684 1.0 0.0
2.200000047683716 1.0 0.0
2.299999952316284 1.0 0.0
2.4000000953674316 1.0 0.0
2.5 1.0 0.0
2.5999999046325684 1.0 0.0
2.700000047683716 1.0 0.0
2.799999952316284 1.0 0.0
2.9000000953674316 1.0 0.0
3.0 1.0 0.0
3.0999999046325684 1.0 0.0
3.200000047683716 1.0 0.0
3.299999952316284 1.0 0.0
3.4000000953674316 1.0 0.0
3.5 1.0 0.0
3.5999999046325684 1.0 0.0
3.700000047683716 1.0 0.0
3.799999952316284 1.0 0.0
3.9000000953674316 1.0 0.0
4.0 1.0 0.0
4.099999904632568 1.0 0.0
4.199999809265137 1.0 0.0
4.300000190734863 1.0 0.0
4.400000095367432 1.0 0.0
4.5 1.0 0.0
4.599999904632568 1.0 0.0
4.699999809265137 1.0 0.0
4.800000190734863 1.0 0.0
4.900000095367432 1.0 0.0
5.0 0.8999999761581421 0.0
5.0 0.800000011920929 0.0
5.0 0.699999988079071 0.0
5.0 0.6000000238418579 0.0
5.0 0.5 0.0
5.0 0.4000000059604645 0.0
5.0 0.30000001192092896 0.0
5.0 0.20000000298023224 0.0
5.0 0.10000000149011612 0.0
4.900000095367432 0.0 0.0
4.800000190734863 0.0 0.0
4.699999809265137 0.0 0.0
4.599999904632568 0.0 0.0
4.5 0.0 0.0
4.400000095367432 0.0 0.0
4.300000190734863 0.0 0.0
4.199999809265137 0.0 0.0
4.099999904632568 0.0 0.0
4.0 0.0 0.0
3.9000000953674316 0.0 0.0
3.799999952316284 0.0 0.0
3.700000047683716 0.0 0.0
3.5999999046325684 0.0 0.0
3.5 0.0 0.0
3.4000000953674316 0.0 0.0
3.299999952316284 0.0 0.0
3.200000047683716 0.0 0.0
3.0999999046325684 0.0 0.0
3.0 0.0 0.0
2.9000000953674316 0.0 0.0
2.799999952316284 0.0 0.0
2.700000047683716 0.0 0.0
2.5999999046325684 0.0 0.0
2.5 0.0 0.0
2.4000000953674316 0.0 0.0
2.299999952316284 0.0 0.0
2.200000047683716 0.0 0.0
2.0999999046325684 0.0 0.0
2.0 0.0 0.0
1.899999976158142 0.0 0.0
1.7999999523162842 0.0 0.0
1.7000000476837158 0.0 0.0
1.600000023841858 0.0 0.0
1.5 0.0 0.0
1.399999976158142 0.0 0.0
1.2999999523162842 0.0 0.0
1.2000000476837158 0.0 0.0
1.100000023841858 0.0 0.0
1.0 0.0 0.0
0.8999999761581421 0.0 0.0
0.800000011920929 0.0 0.0
0.699999988079071 0.0 0.0
0.6000000238418579 0.0 0.0
0.5 0.0 0.0
0.4000000059604645 0.0 0.0
0.30000001192092896 0.0 0.0
0.20000000298023224 0.0 0.0
0.10000000149011612 0.0 0.0
0.0 0.10000000149011612 0.0
0.0 0.20000000298023224 0.0
0.0 0.30000001192092896 0.0
0.0 0.4000000059604645 0.0
0.0 0.5 0.0
0.0 0.6000000238418579 0.0
0.0 0.699999988079071 0.0
0.0 0.800000011920929 0.0
0.0 0.8999999761581421 0.0
0.7496038675308228 0.5164291858673096 0.0
1.3451675176620483 0.5190238952636719 0.0
1.9462687969207764 0.4963642954826355 0.0
4.456614971160889 0.5060901641845703 0.0
3.864220380783081 0.4866538345813751 0.0
3.249823808670044 0.482722669839859 0.0
2.6500000953674316 0.5 0.0
0.3810288906097412 0.399004191160202 0.0
2.308779239654541 0.3797946870326996 0.0
1.0499999523162842 0.6625000238418579 0.0
1.644740104675293 0.6598879098892212 0.0
4.150000095367432 0.3375000059604645 0.0
3.555316209793091 0.3343118131160736 0.0
2.9446933269500732 0.3401789665222168 0.0
1.6342840194702148 0.3290160894393921 0.0
1.0591840744018555 0.33908534049987793 0.0
2.9654481410980225 0.6753292679786682 0.0
3.5534629821777344 0.6835107207298279 0.0
4.153462886810303 0.6835107207298279 0.0
2.2139804363250732 0.6805098056793213 0.0
0.4914395809173584 0.6739721894264221 0.0
4.691666603088379 0.6916666626930237 0.0
4.691666603088379 0.3083333373069763 0.0
2.4872219562530518 0.7236665487289429 0.0
0.6240421533584595 0.2677222192287445 0.0
2.0697431564331055 0.2657754421234131 0.0
2.5389034748077393 0.26082900166511536 0.0
0.8147311806678772 0.7450684309005737 0.0
1.2897310256958008 0.743314266204834 0.0
1.8853894472122192 0.7450258731842041 0.0
4.382374286651611 0.23655959963798523 0.0
3.910269021987915 0.25668570399284363 0.0
3.1838724613189697 0.25397706031799316 0.0
1.398239254951477 0.2614254057407379 0.0
3.201760768890381 0.7385746240615845 0.0
3.8017609119415283 0.7385746240615845 0.0
4.39177942276001 0.7466779351234436 0.0
0.25301694869995117 0.7458874583244324 0.0
2.7258167266845703 0.7600342631340027 0.0
0.84163498878479 0.2263137847185135 0.0
0.22429518401622772 0.22429518401622772 0.0
2.7605957984924316 0.22504857182502747 0.0
1.8330284357070923 0.2150011658668518 0.0
0.2192869633436203 0.5323538780212402 0.0
4.7908525466918945 0.5038931369781494 0.0
2.466000556945801 0.5376454591751099 0.0
3.7061264514923096 0.17723728716373444 0.0
3.3929696083068848 0.20266839861869812 0.0
1.4905184507369995 0.7937026619911194 0.0
1.2104878425598145 0.20361483097076416 0.0
3.9895122051239014 0.7963851690292358 0.0
3.389512300491333 0.7963851690292358 0.0
0.5652223825454712 0.5070380568504333 0.0
0.44509074091911316 0.19716571271419525 0.0
2.1318352222442627 0.5042122602462769 0.0
1.548349142074585 0.4954715371131897 0.0
3.050636053085327 0.5004673004150391 0.0
0.9511125087738037 0.498258113861084 0.0
3.651650905609131 0.5045284628868103 0.0
4.248488903045654 0.4980509281158447 0.0
1.1537858247756958 0.49593159556388855 0.0
4.050199031829834 0.49993085861206055 0.0
3.464722156524658 0.509624183177948 0.0
1.749653697013855 0.5001751780509949 0.0
2.851828098297119 0.5057260394096375 0.0
2.359710216522217 0.1888567954301834 0.0
2.0499017238616943 0.8199846148490906 0.0
0.6430503129959106 0.8181284070014954 0.0
4.560274600982666 0.1724673956632614 0.0
4.55863094329834 0.8299665451049805 0.0
2.321284055709839 0.8242537379264832 0.0
4.815218925476074 0.8345447778701782 0.0
4.837246894836426 0.16590170562267303 0.0
0.9682294130325317 0.8331464529037476 0.0
1.730908751487732 0.827606201171875 0.0
4.220076560974121 0.17516615986824036 0.0
3.02066969871521 0.18326662480831146 0.0
1.5634372234344482 0.17044226825237274 0.0
3.035303831100464 0.8294908404350281 0.0
3.627507209777832 0.8360387086868286 0.0
4.2312469482421875 0.8315803408622742 0.0
4.618130683898926 0.5361976027488708 0.0
0.40311703085899353 0.8369210362434387 0.0
1.1473191976547241 0.8458209037780762 0.0
4.052680969238281 0.15417908132076263 0.0
2.020958423614502 0.6394158005714417 0.0
0.662188708782196 0.6447370648384094 0.0
4.5115838050842285 0.3538685142993927 0.0
1.0221220254898071 0.15309639275074005 0.0
0.3837882876396179 0.5515117049217224 0.0
3.548090934753418 0.15800617635250092 0.0
1.4348299503326416 0.6465393304824829 0.0
3.765170097351074 0.3534606993198395 0.0
3.3348300457000732 0.3534606993198395 0.0
1.2546738386154175 0.36384353041648865 0.0
3.945326089859009 0.636156439781189 0.0
3.3412928581237793 0.637225866317749 0.0
2.1904795169830322 0.17066854238510132 0.0
0.16392111778259277 0.38331863284111023 0.0
2.87723445892334 0.8265392184257507 0.0
4.8459792137146 0.6499902606010437 0.0
4.845625400543213 0.34837812185287476 0.0
2.771622896194458 0.38129922747612 0.0
4.5222978591918945 0.6578375697135925 0.0
2.604464530944824 0.8240283727645874 0.0
1.8544400930404663 0.3751189708709717 0.0
0.8566747903823853 0.38255012035369873 0.0
2.2932615280151367 0.5369129776954651 0.0
2.620572805404663 0.6496497392654419 0.0
0.7172287106513977 0.1490369737148285 0.0
0.1410960853099823 0.8303417563438416 0.0
1.7142322063446045 0.142862930893898 0.0
2.6314175128936768 0.14492936432361603 0.0
1.9832650423049927 0.1408119648694992 0.0
2.445650577545166 0.370038241147995 0.0
2.885042667388916 0.1455758661031723 0.0
0.13937503099441528 0.6546638011932373 0.0
0.9110832810401917 0.6349053978919983 0.0
3.088575839996338 0.3613528311252594 0.0
4.296638011932373 0.3563385307788849 0.0
1.1930090188980103 0.6355591416358948 0.0
1.788455843925476 0.6387236714363098 0.0
4.006990909576416 0.3644408583641052 0.0
1.4459187984466553 0.39242905378341675 0.0
4.354081153869629 0.6075709462165833 0.0
3.7540812492370605 0.6075709462165833 0.0
3.1591691970825195 0.6018876433372498 0.0
2.7615907192230225 0.6205627918243408 0.0
2.36276912689209 0.6735464930534363 0.0
1.3681535720825195 0.8630191683769226 0.0
3.8318464756011963 0.1369808316230774 0.0
3.275517463684082 0.10712132602930069 0.0
0.5630941987037659 0.12814241647720337 0.0
1.3237862586975098 0.10638008266687393 0.0
3.2733232975006104 0.8705052733421326 0.0
3.8733232021331787 0.8705052733421326 0.0
2.0396511554718018 0.38928428292274475 0.0
2.2168734073638916 0.8508136868476868 0.0
0.5163488388061523 0.3409615159034729 0.0
0.6547463536262512 0.3955095112323761 0.0
1.9480526447296143 0.8710126876831055 0.0
4.689375877380371 0.13700176775455475 0.0
4.698264122009277 0.8675068616867065 0.0
0.7578787803649902 0.8698469996452332 0.0
2.479548454284668 0.13692785799503326 0.0
2.4562506675720215 0.8735422492027283 0.0
2.171211004257202 0.3573116958141327 0.0
3.5117530822753906 0.853193998336792 0.0
4.107914924621582 0.8658969402313232 0.0
2.640726327896118 0.354434996843338 0.0
4.346996307373047 0.1279495507478714 0.0
0.3128283619880676 0.11246757209300995 0.0
0.136248379945755 0.12152919173240662 0.0
4.453908443450928 0.8629162907600403 0.0
1.6064813137054443 0.8679171800613403 0.0
0.3380795121192932 0.6626779437065125 0.0
0.5102446675300598 0.875635027885437 0.0
0.7425088882446289 0.2989330589771271 0.0
3.1349449157714844 0.10448489338159561 0.0
1.3287748098373413 0.6181886196136475 0.0
3.871795415878296 0.38215625286102295 0.0
3.229135036468506 0.3810797333717346 0.0
0.28971707820892334 0.8759857416152954 0.0
0.9214505553245544 0.11992674320936203 0.0
1.9219478368759155 0.6237660050392151 0.0
1.530794620513916 0.29603153467178345 0.0
3.072223663330078 0.7044162750244141 0.0
3.6722235679626465 0.7044162750244141 0.0
[...]
POINT_DATA 715
SCALARS Psi double
LOOKUP_TABLE default
0.0
0.0
1.0
1.0
1.0
1.0
1.0
1.0
1.0
1.0
1.0
1.0
1.0
1.0
1.0
1.0
1.0
1.0
1.0
1.0
1.0
1.0
1.0
1.0
1.0
1.0
1.0
1.0
1.0
1.0
1.0
1.0
1.0
1.0
1.0
1.0
1.0
1.0
1.0
1.0
1.0
1.0
1.0
1.0
1.0
1.0
1.0
1.0
1.0
1.0
1.0
1.0
1.0
0.9191535115635353
0.8652238836950897
0.7639155784537852
0.6279045862568308
0.4711971339035193
0.31329495302560345
0.17506273541514017
0.0720614400363366
0.019011903796937898
0.0
0.0
0.0
0.0
0.0
0.0
0.0
0.0
0.0
0.0
0.0
0.0
0.0
0.0
0.0
0.0
0.0
0.0
0.0
0.0
0.0
0.0
0.0
0.0
0.0
0.0
0.0
0.0
0.0
0.0
0.0
0.0
0.0
0.0
0.0
0.0
0.0
0.0
0.0
0.0
0.0
0.0
-0.0
0.0
0.0
0.0
0.0
0.0
0.0
0.027348909992145714
0.1076946510109619
0.20923013593169493
0.31087341617529407
0.41246393873659115
0.510818500515341
0.6026372965057101
0.6784500598191499
0.6416404070124295
0.530017596869603
0.5434718883609136
0.5008387242558536
0.49390800538964735
0.4687756338383998
0.4712357564163634
0.5106983457357999
0.3204026660350443
0.3086701433304707
0.7746796605198701
0.7656986201809671
0.22733685567741438
0.2230690958132541
0.24617259146192283
0.22759940318074862
0.2548336785068332
0.7929649606616318
0.7904105219135842
0.787707075077515
0.7974455651263902
0.7598703251208192
0.7853962467567965
0.1774999929892318
0.8542167696134997
0.15682854055598805
0.1446832899292417
0.14004899615833968
0.8815825968174266
0.877509333648942
0.875738664397255
0.09161923543762593
0.12208062564721009
0.1230851868603188
0.13552034564420778
0.8692370051218191
0.8631974638102171
0.8685338581225999
0.7934703268798561
0.9003339632434576
0.11058093712403207
0.11127144379333377
0.09621536851083429
0.08244082761824076
0.46456737146619925
0.48001622066629474
0.5733944082874136
0.039919272282918576
0.0625680204476429
0.929778648355742
0.0697812439962085
0.9259558660389787
0.9266255656121675
0.4954348645126563
0.07117509897659371
0.5152258440128815
0.5011556085677151
0.5073818827293181
0.5098106645895389
0.5006205621638541
0.484491403438852
0.5068722998606235
0.48997794453974597
0.5116331516216819
0.5074735617273081
0.5200416623019828
0.0572818295596463
0.9534834219759554
0.9590429396381082
0.03698040411540371
0.9534465965311
0.9593086658715926
0.9421235414426382
0.028550795970549603
0.9639070402385371
0.9566935883220403
0.04025390682355017
0.05217263576951349
0.040796134261024686
0.9654140892905381
0.9614241855307366
0.9582313293918892
0.540254589404185
0.9786719705545176
0.9709311972671065
0.029666273054633475
0.7342738888667395
0.7344233449073981
0.24466206384577707
0.03679262287134605
0.5292830381672583
0.028937327601613046
0.7485681202857613
0.25089043160418867
0.25604296575036356
0.2870389371766744
0.7164473139497951
0.7239154850624849
0.04416283048129285
0.2947966301219546
0.9645269084174046
0.7140678574311164
0.22858553770211187
0.3126441503120122
0.7427029007527254
0.9598891328590153
0.2993513597198998
0.32227296815708567
0.5708616858632245
0.7549240287581052
0.03726062900184187
0.8225955239756767
0.02550765187417904
0.02717455612159271
0.024965073984129723
0.29450141342833586
0.026203773882357805
0.5837982286926832
0.7316253361345617
0.2758056923571762
0.25247281745082695
0.7336942601020513
0.732533550738766
0.26906542389243143
0.3296442874697766
0.6663771098510651
0.6719775302167896
0.6737864206916399
0.7099503466396591
0.7863973775202552
0.9792145274975852
0.017570799006643052
0.001819440640735075
0.02126366001962758
0.001095013053770326
0.9814904159561153
0.9823929932170109
0.32344522329374775
0.9760294347178133
0.2496272223497046
0.33446535203305733
0.9853350343699812
0.019710941541038095
0.9787869449614894
0.9849564854629242
0.023127323745974426
0.984150877282678
0.2733170065750154
0.9698382323626731
0.9803094652406107
0.27114677468121
0.005713295012150194
0.006011911432445901
0.02258999506608529
0.9773891406854947
0.9812372664701136
0.6942271955642926
0.9922308112734697
0.199963192212485
0.0030155098184267426
0.7055131212122029
0.2966976771600224
0.30309001058066715
1.0187573920490969
0.02183504135870539
0.7090662781715882
0.1814217826697149
0.8299847891553047
0.8180080795709131
0.8149480660975553
1.0057943020804867
0.6891378757750011
0.0040973383447170325
0.9947727149549672
0.9944102399673054
0.15506158527388345
0.3247936788299435
0.18276477733426807
0.9957720188850052
0.003629479209796438
0.8690387624595256
0.292089762479537
0.12748531221921602
0.34094353557907847
0.011509048595581724
0.16199671433379104
0.9905894509145183
0.9901133234572826
0.12590478315026013
0.19033301056468985
-0.00153660444376711
0.44222617891641924
-0.0035146949086089676
0.4047653129514369
0.1932298661668229
-0.0037486174869044344
0.0007270440414404486
0.4096585537312513
0.4288286982594216
0.41405628010410284
0.5924634289452514
0.5907306625573677
0.003094599254131014
0.5523301214790367
0.001596802777326545
0.6953253995507257
0.12921370799576243
0.602126073448911
1.0011717228016712
0.8049341311214016
0.17323399990870128
0.8032718899186351
0.1822105228947181
0.2003581174049934
0.8166395690980524
0.9983389484887965
0.0015761158580719617
0.13120514657975066
0.8663115560186783
0.13337858134320968
0.33045187135048554
0.6183598418159738
0.8275678235391741
0.10618778520221146
0.4083879408182514
0.4166643279740138
0.6119461970458985
0.5978282353307309
0.5917518384523723
0.020345283775320914
0.6538761491181648
0.13751152937470523
0.8659441622125431
0.8617650514805683
0.5957460873428552
0.407618887029756
0.42397143234172235
0.0037067117001015884
0.5892468472657846
0.8686283577303997
0.13359138720712702
1.0063898316085509
0.19546110877042866
0.574282428333007
0.657918625142187
0.406093724672301
0.862272259397298
0.5814698895477597
0.9992768509441406
0.45187553577865425
0.9883563329309104
0.9875578630889729
0.8960477414722313
0.8673233722677539
0.9583983305965581
0.006064300474219916
0.42400687333071985
0.7088444557153155
0.5766536188572979
0.682147810612776
0.36755470037665633
0.10449503668082295
-0.0013920655301719264
0.4397350240204209
0.21144024532034783
0.8399569728610482
0.5645924374869639
0.4405725487467862
0.44679370510534944
0.8513252809951753
0.8765602684319116
0.13779907950687814
0.12247769540867114
0.8683778407274652
0.4105135582396374
0.999111764610585
0.14237396371462627
0.9049535180764943
0.906013177579719
0.358808196792389
0.9176329544829835
1.0040537599861117
0.11396880597545579
0.1429664452176733
0.6761991112385678
0.3241327427121012
0.6774665249774996
0.6896939227158523
0.0845100096274974
0.6693108941201816
0.33425716090742397
0.33429349436084094
0.0065074622236178025
0.47486382985222175
0.2625116485085389
0.7376724085786849
0.7653790810436184
0.33967832131331105
0.8772968925762432
0.6663575487492731
0.6616779451934133
0.6352434052981022
0.007638034516873762
0.007444563983581848
0.13107013764740227
0.823202598238861
-0.0030678704569907685
0.916003777620565
0.9158235831509435
0.8476691316434345
-0.003402683610641782
-0.0028102827500913782
0.19013852238773546
0.34165471877202996
0.00016852432417096798
1.0004389081628002
0.33695280617341655
0.8869228724491104
1.0002035008886374
0.8834411403969736
0.11955051214381203
1.0058176904576042
-0.0015348637889357809
0.10320843946542406
0.9954768715065678
-0.0004869256891724163
0.31752134097839124
0.0005960541837804212
0.6908720496239381
0.003674655053491781
1.002021606692551
1.0044506108726756
0.11162609204186033
0.49314525939507403
0.15105242637490712
0.997817513482007
0.8863535926396122
0.9988927571575077
0.3288295213439353
0.9993660251585728
1.0028000920529732
0.1332973548263783
0.08785292181065764
6.295832041979114e-05
0.2804334207417903
0.6489820705782539
0.5856460553492637
0.41222594484528335
0.5621150425470147
1.0040090984260326
0.25553998443808773
0.5710529291787333
0.9999281689832485
0.0003268728876819087
-0.001351263065680913
0.19360381293843007
0.40715458901404705
0.5792151704388078
-0.001844157855806411
0.9208348756554817
1.0052377726814756
0.8847947010961499
0.09075688284885575
0.9145181377561897
0.9079126363866801
0.6349271364869501
0.07785097588326786
0.8956091736340838
-0.0018911719028604935
0.2803362594338416
0.0026075370124069505
0.9330985784853068
0.06690490016184059
-0.0014950662700999049
0.5881375472028213
0.539965318162943
1.004267157717464
1.015446632666824
1.0015220381826635
0.0012886878456181655
0.433638006148303
0.6800798052563216
0.6878353163696261
0.6814530656065886
0.3195421522981182
0.31557704730709263
0.3311777010489259
0.943968117088156
1.0353801333167045
0.9973996449879382
0.9947092192780609
0.9634655820613118
0.6847650427557951
0.7572923318561929
-0.0020342244258967483
0.06494319830052613
0.791234963104901
0.7057687062923289
0.23150033324124075
0.872669186584817
0.08520588677149009
0.07569740851666378
0.718459027691573
0.6196132417791271
0.434423609287371
0.9981135090166009
1.0012553944253957
0.7733242536887189
0.10034058581656716
0.9310219182608497
0.2131017798888521
0.9524583924729857
0.053629485464124646
1.000367855606382
0.0021545833910862314
0.36719465076057745
0.6124996061093939
0.3625375549782258
0.8332843940913616
0.041702092189043645
0.5915625099339891
0.37552698639420223
0.8387139455733665
-0.001186124352448975
-0.0035739806915047823
0.18944899521875475
0.17515297023348872
0.05628317187092854
0.10445220410832701
0.9456984013716938
0.8418521236700297
0.15963743465123834
0.8016223763899878
0.20395647047064636
0.9068464207111887
0.9027321590910476
0.9024146818094742
-0.004685826950877511
0.9410934695804278
0.35871477135226865
0.21723008127333177
1.0005130605162704
0.16917542731628823
0.5586641049426712
0.7135175682468882
0.6102956824615142
0.6410772534322916
0.04321377550940863
0.9522615990057611
0.9512117711091798
0.055853653423435144
0.6962931138917128
-0.006166719528320876
1.0059140070035715
1.0037291982967114
0.03729617363830048
0.04215512484999427
0.8945987846864
0.2519057616696655
0.947891174699156
0.4508635526657347
0.8599760070894965
-0.00039832983852325387
0.6444013139724379
0.3546403862558616
0.3662221263499498
1.00112474889713
-0.0021072116925528995
0.5573401045184477
-0.007555049357875701
0.4132394045194266
0.06738299515810396
-0.0011407160400785609
0.23549780286626892
0.6268067933681518
0.7203119831015529
0.7838670013433933
0.9501133286202913
0.04767220239363951
0.24197165673507157
0.184564281287074
0.7697800957802569
1.0045262541878137
0.23311011175684915
0.06869024063258296
0.18519516752413204
0.05373841821171429
0.9302800153552728
0.04656037345434705
0.2096565955796857
0.785968696908159
0.7903025092600221
0.8003498787170311
0.4076135170324772
1.0058814850721416
0.3702452092311918
0.9176729755756678
-0.001255145145048194
0.05100242027752823
0.04006184064497072
0.5979076132984718
0.07035763247887727
0.0020977200468787574
0.0598803712511979
0.08157829111998605
0.41449667038445215
0.5613752252640043
0.03017143245312693
0.19510853097934133
-0.0018223045157316823
1.000103282564474
0.9189034975281077
0.43383836325039654
0.5696252976108256
0.627119217674994
0.9392295384000798
0.05123914173337379
0.05028839475740707
0.9982451239333839
0.030413181883436183
0.5060812594586936
0.3264998177027363
0.118691452876568
-0.0008794219686882074
0.7918481363058453
0.9494470243402597
0.1446284564194511
0.12577264130726026
0.8541777300210996
1.0017399121248514
0.044729201101752644
0.9434403334939033
0.9428125524525007
0.44470966536071566
0.44287883622911917
1.0008300760611877
0.21414186922545297
0.33467678370252457
0.37457139312991594
0.00026738544838796004
0.9675656850842351
0.968498674982866
0.2445545431549382
0.5963522475093089
0.831623201225132
0.8343808070458717
0.18893023645767815
0.8309967751050548
0.23324543027652714
0.8814175039167998
0.8801498026603691
0.61962375421513
0.8944138611909365
0.6194062280091088
0.05133578564243848
0.9505799384969954
0.3936251034139498
0.6234369389172141
0.3760714696049881
-0.007290580432699147
0.3126905188407694
0.05683077498640474
-0.0005236299579717163
0.5669982227914452
0.11551531989580832
0.22024868989096757
0.08609442792639863
0.8002662934782504
0.8744164390173336
0.9760260177769823
0.5855511529978701
0.003257895877663225
0.4047462085991287
0.07768356081748354
0.9992317943187649
1.0002338681077776
-0.0009966667742315428
0.057929429081835675
0.9457050892834808
0.0003897467271823799
-0.004286597871759632
0.2335804327065541
0.7682701573254712
0.4368631180305544
1.0028745119656284
0.22445154150276544
0.8194605726217213
0.1982833357382514
0.8090661706305433
0.19086002818813436
0.9787169187866066
0.001645198366073349
0.4104912205833738
1.0008882749448171
0.9585774507013147
0.04361865290760916

SCALARS Omega double
LOOKUP_TABLE default
-7.6764818926739835
-1.1891375936496853
8.563904277974391
15.92024139515925
36.511071189263745
-6.477695303302208
2.4232776209521645
-4.465350982411407
-0.42813019787924705
1.922990006818424
0.047564096578186714
-0.6379872925352432
0.4854523313940734
1.1452493959791978
0.22961808595431557
0.8259744977884966
0.536331112687
0.7929747324087083
1.5483098603497314
-0.09790933572544927
1.406747859262199
1.24269078916769
-0.43782256658027546
0.48897489581020304
1.0690671720809954
1.0431960804618365
0.756435321149581
0.24147338350185876
0.45867388224092853
1.4216581874337333
1.108139621825871
0.15643636215770415
1.3306136190636486
0.8556574183635477
0.41594350943683694
1.1237460417177234
0.7533669749750015
0.37895991613892566
1.3216202776074801
0.6794226035654874
1.39179601750008
0.7033457119099309
0.4321317270134435
0.3552142784920547
0.9506002390897309
0.7313467674908222
2.152049746374703
0.46756925700901436
-0.4820579196216486
2.1838173376897156
0.8828334719858154
1.8835740187165377
9.596935956528203
-7.786476876319381
0.5395379191806907
2.788700145438944
1.5944320461360388
-0.09674016722267582
-1.0841091688505229
-2.5715541455945052
-3.2423951293472952
-1.6011350487681069
-0.26507719458808365
-0.6733324596186433
-1.0728031863602512
-0.12253243186236881
-0.7159849030201098
-0.3771811300961187
-1.0690397254135415
-0.8171851812648446
-0.3071484015501748
-0.7161820441452608
-0.45617139501561305
0.10699838623800931
-1.77185191837314
-0.6453540033044027
0.39331843569843
-1.5012392422486975
-0.5998906035498355
-0.2920021909642393
-1.1238427225306271
-0.8141137174951953
-0.4272813558542635
-1.1188546477989127
-0.8997931706041398
-1.4401006679823907
-0.155039198869302
-0.555653967686514
-0.9865303706785036
-1.1036083026505414
-0.7467488431834941
0.703180991909143
-1.4094350466060146
-1.2355381305026436
0.21835643309811256
-0.8541342193869128
-1.1174687763390425
-0.15695384538957138
-0.5541241485891235
-1.525334931793597
-1.5305848833768427
-0.39274836351455383
-1.9063595370448547
-0.48628538466163984
-2.0723422657086505
-0.49902690813664136
-0.14030248870931836
-2.0695354350704473
-1.9110202046358142
-0.819029956548109
0.7511129392966689
-4.592718852108374
2.645806082771154
0.312035542814217
-0.025422925267306523
-0.85696332044171
1.649753157077651
-5.889205673716386
-2.340261172460927
-42.60843827323306
-0.5133212615331435
0.5107964823360631
0.08802317556725947
-0.09128086305940417
-0.3068952065144761
-0.240496550316196
0.1602549851494329
-0.37571804690227545
-1.876157377268015
3.125574278129101
2.8016576229244685
-2.8549517092280317
-2.8802257106185634
-2.5538707485860628
-2.7951817486578903
-2.04588335697973
3.0752736020443114
3.050125721205804
2.993175463893572
3.0568921419641435
2.3160608891327277
3.048533777612615
-3.4233506485376357
3.926012414168195
-2.586034526092047
-4.080167989160179
-4.043072511966121
5.2152205455361935
4.354569927492391
4.114377525128541
-4.768144261870471
-4.373349435490861
-4.278762882403323
-4.087506846421788
4.254149779402052
4.05349890599665
4.289597357355306
1.9684177934102394
4.6105556626352
-3.968142356891812
-1.702809813105611
-4.697916465595741
-5.048645575727254
-1.4214527515185265
-0.2009148755768014
0.7469539379102785
-6.288546940573965
-5.455072305076459
5.0612924611487164
-5.155147055979354
5.26399894431478
5.061324788096969
-1.2637932817731894
-4.899093099747755
0.20075071854028034
0.1327447502739009
0.11795562851724462
-0.17243310937672487
0.010736550584639504
-0.18351882040035208
0.062290568967139616
-0.11976028180242936
0.12817144689633167
0.18351776742997994
0.24902861782130833
-5.636077131873689
5.406096553088357
7.333876687234298
-5.797952045699594
5.8892357388224745
5.891123169172697
6.153251302262381
-5.413996726538862
5.646333404436549
5.287639863050338
-5.59838592544996
-5.49836190864061
-6.4040523348338185
6.522627637891321
5.6796826229197555
5.7971717196176105
0.34157249078394436
13.252810320347663
5.612346660398364
-5.567496996097611
2.3644981463191184
2.26559076633363
-2.5570517638199073
-5.438441216160467
-2.340531658775501
-5.9291386632595255
2.6775649706020648
-2.551565901398919
-2.4773760856119105
-1.8745053534362772
2.128290526184193
2.290927893294927
-5.6002928312535705
0.08637437866741836
6.0642431499514675
1.9057632079149194
-2.380831975553119
-1.7972978148130412
2.431178760839915
5.6289190222709315
-1.9528039382501081
-1.268917730858215
0.7115078440772995
2.6234153464320973
-6.108678884369783
-1.8667105315544
-6.177124595507303
-6.159544563606844
-6.323327538013378
-2.017278203118883
-6.221692232991197
-4.517804212184073
2.4846538243921525
-2.2371763326009906
-2.5251354811497393
2.557803951598287
2.3989311262745545
-2.3644391785263736
-1.5299719612611171
1.5934647776067636
1.6989362478947252
1.7439770933696568
2.1395830448980955
3.010448283837965
5.733329852350827
-6.490585181418995
-7.510130142781493
-6.640515149200079
-8.348866852884697
6.301801915311477
6.8873808306658955
-1.6946855702231012
6.694538735613932
-0.9132624037259928
-1.006567085296027
6.619513409368323
-5.394598864319018
8.007118836146235
6.0090948081062825
-6.180167337528405
5.605580701278392
-2.271030934562902
5.654473696999163
7.061461053579108
-2.2580841920841253
-8.383452366272335
-10.849525736151975
-8.805203793207045
6.605754416165845
5.797443286373178
-1.0360664431377946
7.102541656583351
-2.168176754935883
-7.872256094294739
2.2204306454280407
-2.0484364636116115
-1.9622060224547475
23.703326200080028
-6.21311201252615
2.135048984734636
-3.436935185275761
3.621701687285285
3.368295857739918
3.3558586762466587
7.482050958171729
1.6244172095122553
-8.245293171119577
8.410372691009233
6.863647704796799
-1.4501267155521265
-1.6961031281685564
-3.431324808013369
6.686840539478693
-6.652483699024422
4.117183889240923
-2.074600264363289
-3.7611713823747177
-0.44578649674928783
-6.3072070377256555
3.2824657643419726
7.5123160273049745
5.576218379077783
-4.2499577544088485
-3.3384429652045
-9.954356494802617
-0.49146089501336426
-8.138131549107571
-1.4070947213229295
-3.2059400292450815
-8.59276901318094
-7.821853486304926
-0.8919757347537773
-0.6206243074668768
-0.8208749179625934
0.7729127813289721
0.9917216606066154
-7.2386107901401475
1.4186516340292716
-9.139283365064957
1.9906064931363834
-4.145464087579917
-4.132356671361825
9.583010889456745
3.2459155141952873
-3.112437544803957
3.247073214078777
-3.4031186600374332
-3.1891155624865317
3.425894581900516
6.7030461216005515
-6.379148761154186
-4.218073059599613
4.143112967170344
-4.111285069024461
-1.285030799466753
1.1033057720097885
5.966853384434564
-9.636097355620938
-0.7604521747417483
-0.732274110985278
1.1209075542209483
0.9658063504058105
0.8406529361128493
-6.701382416358986
-8.02325008347229
-3.9028723789915425
4.1537669883167085
4.038486387558097
0.9867051593660928
-0.9056889516076423
-0.6853912802089732
-8.830941518262032
0.9423546410161856
4.41032434398516
-4.091561522951606
9.40059698062229
-3.2034015103666884
-0.4410077997551796
0.2039710690773427
-0.9086853149804819
3.9470804662256818
0.23928751317261096
8.399695263838039
-0.4063124888580115
6.636121015714573
6.174473978916245
4.523941703310735
5.498119178586446
2.751644980430497
-7.635577673118964
-1.287923738078016
2.0998386734742143
0.790367707752975
1.8043271132631482
-2.097624210667096
-4.5787867342958775
-10.004299319478053
-0.6082248404039351
0.7356821095062261
3.62944388881364
0.729417466936998
-0.5741718199295621
-0.4836001578317484
5.485198962161626
4.903978254481084
-4.0366242727392345
-4.159585283718871
3.999947436636525