# vtk DataFile Version 1.0
2D Simulation C++
ASCII
DATASET UNSTRUCTURED_GRID
FIELD FieldData 1
NODES 1 2 int
715 1308

POINTS 715 double
0.0 0.0 0.0
5.0 0.0 0.0
5.0 1.0 0.0
0.0 1.0 0.0
0.10000000149011612 1.0 0.0
0.20000000298023224 1.0 0.0
0.30000001192092896 1.0 0.0
0.4000000059604645 1.0 0.0
0.5 1.0 0.0
0.6000000238418579 1.0 0.0
0.699999988079071 1.0 0.0
0.800000011920929 1.0 0.0
0.8999999761581421 1.0 0.0
1.0 1.0 0.0
1.100000023841858 1.0 0.0
1.2000000476837158 1.0 0.0
1.2999999523162842 1.0 0.0
1.399999976158142 1.0 0.0
1.5 1.0 0.0
1.600000023841858 1.0 0.0
1.7000000476837158 1.0 0.0
1.7999999523162842 1.0 0.0
1.899999976158142 1.0 0.0
2.0 1.0 0.0
2.0999999046325684 1.0 0.0
2.200000047683716 1.0 0.0
2.299999952316284 1.0 0.0
2.4000000953674316 1.0 0.0
2.5 1.0 0.0
2.5999999046325684 1.0 0.0
2.700000047683716 1.0 0.0
2.799999952316284 1.0 0.0
2.9000000953674316 1.0 0.0
3.0 1.0 0.0
3.0999999046325684 1.0 0.0
3.200000047683716 1.0 0.0
3.299999952316284 1.0 0.0
3.4000000953674316 1.0 0.0
3.5 1.0 0.0
3.5999999046325684 1.0 0.0
3.700000047683716 1.0 0.0
3.799999952316284 1.0 0.0
3.9000000953674316 1.0 0.0
4.0 1.0 0.0
4.099999904632568 1.0 0.0
4.199999809265137 1.0 0.0
4.300000190734863 1.0 0.0
4.400000095367432 1.0 0.0
4.5 1.0 0.0
4.599999904632568 1.0 0.0
4.699999809265137 1.0 0.0
4.800000190734863 1.0 0.0
4.900000095367432 1.0 0.0
5.0 0.8999999761581421 0.0
5.0 0.800000011920929 0.0
5.0 0.699999988079071 0.0
5.0 0.6000000238418579 0.0
5.0 0.5 0.0
5.0 0.4000000059604645 0.0
5.0 0.30000001192092896 0.0
5.0 0.20000000298023224 0.0
5.0 0.10000000149011612 0.0
4.900000095367432 0.0 0.0
4.800000190734863 0.0 0.0
4.699999809265137 0.0 0.0
4.599999904632568 0.0 0.0
4.5 0.0 0.0
4.400000095367432 0.0 0.0
4.300000190734863 0.0 0.0
4.199999809265137 0.0 0.0
4.099999904632568 0.0 0.0
4.0 0.0 0.0
3.9000000953674316 0.0 0.0
3.799999952316284 0.0 0.0
3.700000047683716 0.0 0.0
3.5999999046325684 0.0 0.0
3.5 0.0 0.0
3.4000000953674316 0.0 0.0
3.299999952316284 0.0 0.0
3.200000047683716 0.0 0.0
3.0999999046325684 0.0 0.0
3.0 0.0 0.0
2.9000000953674316 0.0 0.0
2.799999952316284 0.0 0.0
2.700000047683716 0.0 0.0
2.5999999046325684 0.0 0.0
2.5 0.0 0.0
2.4000000953674316 0.0 0.0
2.299999952316284 0.0 0.0
2.200000047683716 0.0 0.0
2.0999999046325684 0.0 0.0
2.0 0.0 0.0
1.899999976158142 0.0 0.0
1.7999999523162842 0.0 0.0
1.7000000476837158 0.0 0.0
1.600000023841858 0.0 0.0
1.5 0.0 0.0
1.399999976158142 0.0 0.0
1.2999999523162842 0.0 0.0
1.2000000476837158 0.0 0.0
1.100000023841858 0.0 0.0
1.0 0.0 0.0
0.8999999761581421 0.0 0.0
0.800000011920929 0.0 0.0
0.699999988079071 0.0 0.0
0.6000000238418579 0.0 0.0
0.5 0.0 0.0
0.4000000059604645 0.0 0.0
0.30000001192092896 0.0 0.0
0.20000000298023224 0.0 0.0
0.10000000149011612 0.0 0.0
0.0 0.10000000149011612 0.0
0.0 0.20000000298023224 0.0
0.0 0.30000001192092896 0.0
0.0 0.4000000059604645 0.0
0.0 0.5 0.0
0.0 0.6000000238418579 0.0
0.0 0.699999988079071 0.0
0.0 0.800000011920929 0.0
0.0 0.8999999761581421 0.0
0.7496038675308228 0.5164291858673096 0.0
1.3451675176620483 0.5190238952636719 0.0
1.9462687969207764 0.4963642954826355 0.0
4.456614971160889 0.5060901641845703 0.0
3.864220380783081 0.4866538345813751 0.0
3.249823808670044 0.482722669839859 0.0
2.6500000953674316 0.5 0.0
0.3810288906097412 0.399004191160202 0.0
2.308779239654541 0.3797946870326996 0.0
1.0499999523162842 0.6625000238418579 0.0
1.644740104675293 0.6598879098892212 0.0
4.150000095367432 0.3375000059604645 0.0
3.555316209793091 0.3343118131160736 0.0
2.9446933269500732 0.3401789665222168 0.0
1.6342840194702148 0.3290160894393921 0.0
1.0591840744018555 0.33908534049987793 0.0
2.9654481410980225 0.6753292679786682 0.0
3.5534629821777344 0.6835107207298279 0.0
4.153462886810303 0.6835107207298279 0.0
2.2139804363250732 0.6805098056793213 0.0
0.4914395809173584 0.6739721894264221 0.0
4.691666603088379 0.6916666626930237 0.0
4.691666603088379 0.3083333373069763 0.0
2.4872219562530518 0.7236665487289429 0.0
0.6240421533584595 0.2677222192287445 0.0
2.0697431564331055 0.2657754421234131 0.0
2.5389034748077393 0.26082900166511536 0.0
0.8147311806678772 0.7450684309005737 0.0
1.2897310256958008 0.743314266204834 0.0
1.8853894472122192 0.7450258731842041 0.0
4.382374286651611 0.23655959963798523 0.0
3.910269021987915 0.25668570399284363 0.0
3.1838724613189697 0.25397706031799316 0.0
1.398239254951477 0.2614254057407379 0.0
3.201760768890381 0.7385746240615845 0.0
3.8017609119415283 0.7385746240615845 0.0
4.39177942276001 0.7466779351234436 0.0
0.25301694869995117 0.7458874583244324 0.0
2.7258167266845703 0.7600342631340027 0.0
0.84163498878479 0.2263137847185135 0.0
0.22429518401622772 0.22429518401622772 0.0
2.7605957984924316 0.22504857182502747 0.0
1.8330284357070923 0.2150011658668518 0.0
0.2192869633436203 0.5323538780212402 0.0
4.7908525466918945 0.5038931369781494 0.0
2.466000556945801 0.5376454591751099 0.0
3.7061264514923096 0.17723728716373444 0.0
3.3929696083068848 0.20266839861869812 0.0
1.4905184507369995 0.7937026619911194 0.0
1.2104878425598145 0.20361483097076416 0.0
3.9895122051239014 0.7963851690292358 0.0
3.389512300491333 0.7963851690292358 0.0
0.5652223825454712 0.5070380568504333 0.0
0.44509074091911316 0.19716571271419525 0.0
2.1318352222442627 0.5042122602462769 0.0
1.548349142074585 0.4954715371131897 0.0
3.050636053085327 0.5004673004150391 0.0
0.9511125087738037 0.498258113861084 0.0
3.651650905609131 0.5045284628868103 0.0
4.248488903045654 0.4980509281158447 0.0
1.1537858247756958 0.49593159556388855 0.0
4.050199031829834 0.49993085861206055 0.0
3.464722156524658 0.509624183177948 0.0
1.749653697013855 0.5001751780509949 0.0
2.851828098297119 0.5057260394096375 0.0
2.359710216522217 0.1888567954301834 0.0
2.0499017238616943 0.8199846148490906 0.0
0.6430503129959106 0.8181284070014954 0.0
4.560274600982666 0.1724673956632614 0.0
4.55863094329834 0.8299665451049805 0.0
2.321284055709839 0.8242537379264832 0.0
4.815218925476074 0.8345447778701782 0.0
4.837246894836426 0.16590170562267303 0.0
0.9682294130325317 0.8331464529037476 0.0
1.730908751487732 0.827606201171875 0.0
4.220076560974121 0.17516615986824036 0.0
3.02066969871521 0.18326662480831146 0.0
1.5634372234344482 0.17044226825237274 0.0
3.035303831100464 0.8294908404350281 0.0
3.627507209777832 0.8360387086868286 0.0
4.2312469482421875 0.8315803408622742 0.0
4.618130683898926 0.5361976027488708 0.0
0.40311703085899353 0.8369210362434387 0.0
1.1473191976547241 0.8458209037780762 0.0
4.052680969238281 0.15417908132076263 0.0
2.020958423614502 0.6394158005714417 0.0
0.662188708782196 0.6447370648384094 0.0
4.5115838050842285 0.3538685142993927 0.0
1.0221220254898071 0.15309639275074005 0.0
0.3837882876396179 0.5515117049217224 0.0
3.548090934753418 0.15800617635250092 0.0
1.4348299503326416 0.6465393304824829 0.0
3.765170097351074 0.3534606993198395 0.0
3.3348300457000732 0.3534606993198395 0.0
1.2546738386154175 0.36384353041648865 0.0
3.945326089859009 0.636156439781189 0.0
3.3412928581237793 0.637225866317749 0.0
2.1904795169830322 0.17066854238510132 0.0
0.16392111778259277 0.38331863284111023 0.0
2.87723445892334 0.8265392184257507 0.0
4.8459792137146 0.6499902606010437 0.0
4.845625400543213 0.34837812185287476 0.0
2.771622896194458 0.38129922747612 0.0
4.5222978591918945 0.6578375697135925 0.0
2.604464530944824 0.8240283727645874 0.0
1.8544400930404663 0.3751189708709717 0.0
0.8566747903823853 0.38255012035369873 0.0
2.2932615280151367 0.5369129776954651 0.0
2.620572805404663 0.6496497392654419 0.0
0.7172287106513977 0.1490369737148285 0.0
0.1410960853099823 0.8303417563438416 0.0
1.7142322063446045 0.142862930893898 0.0
2.6314175128936768 0.14492936432361603 0.0
1.9832650423049927 0.1408119648694992 0.0
2.445650577545166 0.370038241147995 0.0
2.885042667388916 0.1455758661031723 0.0
0.13937503099441528 0.6546638011932373 0.0
0.9110832810401917 0.6349053978919983 0.0
3.088575839996338 0.3613528311252594 0.0
4.296638011932373 0.3563385307788849 0.0
1.1930090188980103 0.6355591416358948 0.0
1.788455843925476 0.6387236714363098 0.0
4.006990909576416 0.3644408583641052 0.0
1.4459187984466553 0.39242905378341675 0.0
4.354081153869629 0.6075709462165833 0.0
3.7540812492370605 0.6075709462165833 0.0
3.1591691970825195 0.6018876433372498 0.0
2.7615907192230225 0.6205627918243408 0.0
2.36276912689209 0.6735464930534363 0.0
1.3681535720825195 0.8630191683769226 0.0
3.8318464756011963 0.1369808316230774 0.0
3.275517463684082 0.10712132602930069 0.0
0.5630941987037659 0.12814241647720337 0.0
1.3237862586975098 0.10638008266687393 0.0
3.2733232975006104 0.8705052733421326 0.0
3.8733232021331787 0.8705052733421326 0.0
2.0396511554718018 0.38928428292274475 0.0
2.2168734073638916 0.8508136868476868 0.0
0.5163488388061523 0.3409615159034729 0.0
0.6547463536262512 0.3955095112323761 0.0
1.9480526447296143 0.8710126876831055 0.0
4.689375877380371 0.13700176775455475 0.0
4.698264122009277 0.8675068616867065 0.0
0.7578787803649902 0.8698469996452332 0.0
2.479548454284668 0.13692785799503326 0.0
2.4562506675720215 0.8735422492027283 0.0
2.171211004257202 0.3573116958141327 0.0
3.5117530822753906 0.853193998336792 0.0
4.107914924621582 0.8658969402313232 0.0
2.640726327896118 0.354434996843338 0.0
4.346996307373047 0.1279495507478714 0.0
0.3128283619880676 0.11246757209300995 0.0
0.136248379945755 0.12152919173240662 0.0
4.453908443450928 0.8629162907600403 0.0
1.6064813137054443 0.8679171800613403 0.0
0.3380795121192932 0.6626779437065125 0.0
0.5102446675300598 0.875635027885437 0.0
0.7425088882446289 0.2989330589771271 0.0
3.1349449157714844 0.10448489338159561 0.0
1.3287748098373413 0.6181886196136475 0.0
3.871795415878296 0.38215625286102295 0.0
3.229135036468506 0.3810797333717346 0.0
0.28971707820892334 0.8759857416152954 0.0
0.9214505553245544 0.11992674320936203 0.0
1.9219478368759155 0.6237660050392151 0.0
1.530794620513916 0.29603153467178345 0.0
3.072223663330078 0.7044162750244141 0.0
3.6722235679626465 0.7044162750244141 0.0
[...]
POINT_DATA 715
SCALARS Psi double
LOOKUP_TABLE default
0.0
0.0
1.0
1.0
1.0
1.0
1.0
1.0
1.0
1.0
1.0
1.0
1.0
1.0
1.0
1.0
1.0
1.0
1.0
1.0
1.0
1.0
1.0
1.0
1.0
1.0
1.0
1.0
1.0
1.0
1.0
1.0
1.0
1.0
1.0
1.0
1.0
1.0
1.0
1.0
1.0
1.0
1.0
1.0
1.0
1.0
1.0
1.0
1.0
1.0
1.0
1.0
1.0
0.9192792482145117
0.8656526095663765
0.7644974176388649
0.6281547622564417
0.47076780740717994
0.3122509550730406
0.173902331301039
0.07131720085773056
0.01877847937993055
0.0
0.0
0.0
0.0
0.0
0.0
0.0
0.0
0.0
0.0
0.0
0.0
0.0
0.0
0.0
0.0
0.0
0.0
0.0
0.0
0.0
0.0
0.0
0.0
0.0
0.0
0.0
0.0
0.0
0.0
0.0
0.0
0.0
0.0
0.0
0.0
0.0
0.0
0.0
0.0
0.0
0.0
-0.0
0.0
0.0
0.0
0.0
0.0
0.0
0.027349001536309647
0.10769486922395986
0.20923049866922042
0.31087389974590657
0.4124645026038152
0.5108190997822094
0.6026379474333006
0.6784507787995099
0.6416408220380733
0.5300538696613928
0.5435780301773725
0.5008384652965688
0.4939313396467526
0.4692361834027023
0.47135388174143344
0.5098282344825655
0.3204059333720546
0.307540228808413
0.7747349225420209
0.7662759802907462
0.2268239056709566
0.22292236427860712
0.2451766604568293
0.22722874935066728
0.25485151561985386
0.7932168911600853
0.7914561640885727
0.7887144131755447
0.7978368629495228
0.7598833750440682
0.7861463594930024
0.17643453794612357
0.8542927737062673
0.1568384896450797
0.14390910954880431
0.13901534918569305
0.8816046435193231
0.8776185700267066
0.8762617586711252
0.09110148269309591
0.12176873596872413
0.12268832428917789
0.13540441012498483
0.8697679183351673
0.86403202633753
0.8692226999028068
0.7934731872313268
0.9003837915211079
0.11059766755987889
0.11127158243999528
0.09545310502041854
0.08205325397106265
0.46456863229768236
0.47964168143066055
0.5728376459368831
0.03984320839545139
0.0624441553146491
0.9299356782229773
0.06977772129319869
0.9264830441759618
0.927100417068721
0.4954525132786657
0.07117601579328729
0.5150338468233864
0.5012706781479884
0.5071313142018362
0.509860532755952
0.5012634960470024
0.4846867387532579
0.5069266987341199
0.4903742194502922
0.5122162572641104
0.5076124133709574
0.5194089064596717
0.05683732315254931
0.9536819224134608
0.959046766164812
0.036688896940160545
0.9537244667347987
0.9593894705926571
0.9424523675842672
0.028148418065374645
0.9639123688975945
0.9568563171906358
0.040056448140460846
0.05187059489494727
0.04071116431070228
0.9655044827173132
0.9616920705364123
0.9585230779792658
0.5403323965595955
0.9786720159162295
0.9709314292692967
0.029552216920223754
0.7348746968195197
0.7344501389844724
0.24376902271518483
0.03679755294254106
0.5292891767358785
0.028895019149238307
0.7488931614065839
0.25073868003332334
0.255782490058445
0.287003601013743
0.7175230408278799
0.724785897810511
0.043833078898346346
0.2947971280540422
0.9645586127840913
0.7147493215799178
0.2272397626572319
0.3113865347687634
0.7435114744798672
0.9599048911911515
0.2988169036633746
0.3223078212606681
0.5705766163750033
0.7548308122331218
0.03726370866519336
0.8225966001033659
0.02541263600767129
0.026916608905184096
0.024805202354474466
0.29320748341604164
0.02601492539631878
0.5837991445200541
0.731670633496502
0.2751391763481289
0.25184878125046295
0.7337970861941822
0.7331837420163172
0.2687586614432347
0.3295296795751358
0.6671354883267098
0.673029466921094
0.6742503583671173
0.7097961630400509
0.7865363132653352
0.9792066023207477
0.017540010916575206
0.0018434833822647933
0.021263544141652012
0.001108872787447849
0.9815772296582461
0.9825095167391521
0.3227289781400509
0.9760898429801286
0.24963502210992983
0.33448581133355715
0.9853672277982406
0.0195597962295439
0.9789122372818084
0.9849576861721019
0.022948523052530242
0.9841639264354255
0.2723266226636313
0.9700436846696323
0.9804578942465678
0.26978369061789004
0.005702088693377717
0.006011555178025019
0.022590016237896627
0.9775138937840834
0.9812523414479594
0.6942329475345684
0.992228712443094
0.19998334078829316
0.0030264561839269096
0.7057040362954236
0.2965795735675164
0.3027487405461405
1.0187569678782336
0.02183797539656024
0.7096808195061006
0.18117126507953799
0.830394901691508
0.8189870975689676
0.8158285019144041
1.0057591057087578
0.6891760330873997
0.004111820373844328
0.9947951043613092
0.9944032446323152
0.15506252782016028
0.32385016041001496
0.18204355726039237
0.995761191645796
0.003639440381776688
0.8691844986017753
0.2914294642630399
0.127502314917441
0.34094474760028715
0.01143787801276488
0.16199701228501265
0.9905881686388355
0.9901146294511128
0.12506329283190473
0.18981156654704573
-0.001530505728518659
0.44114744745343953
-0.0034598246471472193
0.40476590865622436
0.19212545679625312
-0.003722685853233087
0.0007556121203879841
0.4096402485349026
0.4281000094797185
0.41438846795074913
0.5925244412203134
0.5910784527778851
0.0030980816971882116
0.5523045812107724
0.0016032789559782652
0.6951146489060686
0.1281895996896173
0.6021282092736889
1.0011301314947574
0.805925655807875
0.17322791524595305
0.8042236084697916
0.18198916727035608
0.20019502692968613
0.8170810110383947
0.9983424699249948
0.0016035539495865793
0.13094546169480215
0.8665145106562154
0.1330608783436964
0.33048746726293826
0.6187249641674639
0.8283404118830185
0.10498811292435305
0.408285616677671
0.41670340941682815
0.6118175317828528
0.5987279721943599
0.5924438691948659
0.02034947636489355
0.6538768830556155
0.13745050633116676
0.8666102746753472
0.8626265839822296
0.595848715417752
0.4077789159488964
0.42371227142753576
0.003752987858878761
0.5896284179756861
0.8686771704372649
0.13313187432224646
1.006342132604051
0.1942943700216582
0.5743099957959664
0.6579390446444409
0.40561506890058246
0.8627954362024618
0.5815161571596361
0.9992246949519517
0.4510429374167567
0.9884246518395005
0.9876237024479366
0.8964177276363695
0.8673418127161536
0.9584679600099387
0.00594787403526284
0.42401481724884
0.7088020807111424
0.5768297394411228
0.6825256406796223
0.3665355471676899
0.10384004753558021
-0.0013923945789713504
0.4396216339539046
0.21144084342923328
0.8404617694676981
0.5647706605314675
0.4409894783140957
0.4470294669962627
0.8513399869958385
0.876585353031666
0.13724686429901248
0.12191548455238924
0.8689139941172813
0.40974574236991784
0.9990936136050341
0.14237937901136333
0.905578401804935
0.9066278810728069
0.35771759156700805
0.9177943393920801
1.00405022340744
0.11328187348255928
0.14209798539105767
0.6770536349395723
0.3239455156476971
0.6785422921016039
0.6899831619038276
0.08424161848072724
0.6697114467043971
0.3343631754629638
0.33432216228682593
0.00650730545070751
0.47393022763256315
0.26241333540293726
0.7387723497731454
0.7660836992550442
0.3393490003005089
0.8773469426448759
0.6673188046363332
0.662626551553273
0.6358516167566634
0.007600406278889605
0.007439882510803765
0.13002169784737944
0.8239460259986854
-0.00305620763696936
0.916008923397255
0.9160328888457011
0.8483772886342171
-0.003371636573009784
-0.0027704785298643137
0.19014135495863727
0.3410927735596305
0.00023710429913943338
1.0004330363528293
0.33698185032558925
0.8875476473009983
1.0001829379025855
0.8834672531881114
0.11907178614000825
1.0057937371364074
-0.0014638825989639237
0.10241045706939012
0.9955047527234592
-0.0004521927781408231
0.31752158564695426
0.0005942208167869356
0.6915281603475102
0.0036605219014043283
1.001982102778417
1.0044111856475173
0.1114612844630896
0.4931458837706867
0.15016345964230407
0.9977858557755771
0.8864867832031953
0.9988942335230344
0.3277900508207142
0.9993681404150281
1.0027988886509003
0.13330799347382358
0.08769884562386059
6.940558083651161e-05
0.2794870499920523
0.6488162553646808
0.5856589096983656
0.4122352989125078
0.5628478102300003
1.0040013117942734
0.255540420012186
0.5713567114921627
0.9999247673952578
0.0003482197410934455
-0.0013298595594682207
0.19362949778244806
0.40715798971122974
0.5785928446750042
-0.0018170523793079366
0.921344568042046
1.0051963688242098
0.8847979748103698
0.09061877523545712
0.9148366672388012
0.9085407886941183
0.6345085287470957
0.07725709326686965
0.8961525544302139
-0.0018948997818778101
0.2789297922830027
0.002617380464292841
0.9331295958082744
0.06667253112179763
-0.0014797536440930435
0.588735453288259
0.5399683967532422
1.0042444125403798
1.0154458889527214
1.0014958968685392
0.001297303104193112
0.4334920053382313
0.6801341166176256
0.6879132116264578
0.6820189754886515
0.31915049534276047
0.31529578858494084
0.33039925902265127
0.9440145011615568
1.035379805329651
0.9974029444431266
0.9947374510034303
0.9634700699316181
0.6847745951671584
0.7573031575641065
-0.0019913753991036044
0.06494641702694964
0.7912184031077224
0.7063879818039687
0.23014489758341353
0.8726694773838719
0.08458607469261921
0.07539888098070242
0.718603285286641
0.6205490400711884
0.4344624924757525
0.9980810074587694
1.0012214273251594
0.7741827327689926
0.1003532215844843
0.9312690757945625
0.21183958397098634
0.952485637081443
0.053151590919030677
1.0003467214830066
0.002154200706297638
0.36648438381702103
0.6127890920266548
0.3612608189146443
0.8332913228892116
0.04142992387760887
0.5915243313357484
0.37552777953846805
0.839285263906847
-0.0011630928108014016
-0.0035286439360927677
0.18944932065419023
0.1743843869304498
0.05618612135399057
0.10385417146724539
0.9457087015205905
0.8419426996843467
0.1592522760165953
0.8016634504491452
0.20336621830619464
0.9068477873009159
0.9033826039953761
0.9030458135337963
-0.004642819427028755
0.9413505716733666
0.3587285288553334
0.21640680821894653
1.0004719834274165
0.16857031747198684
0.5588865706444756
0.7141598624845548
0.6110854017256556
0.6411104875536627
0.043187363104111975
0.9524998589935184
0.951568510932212
0.055340009937953516
0.696294717585557
-0.0061490758394518895
1.005849954613187
1.003678191813609
0.03717914374878428
0.041520492916806796
0.8949870065787143
0.25191851307429297
0.9481925407240018
0.4504246909198015
0.8602048714960148
-0.00039827179189525077
0.6446135306447627
0.35474543889298205
0.366132922012129
1.0011044044355366
-0.002084977472597658
0.5573406898341232
-0.00755550893032649
0.4132251879004673
0.06738830628241556
-0.0011412276066909677
0.23495420685112658
0.627205349901969
0.7203127658960613
0.7845560715679238
0.9501443723400843
0.04752802968212839
0.24105251678375278
0.18385480534009735
0.7698179539000931
1.0044768072018044
0.2331275679290802
0.06822096535472275
0.1843974290068112
0.05335779247616274
0.9304851177065954
0.04631233511647328
0.20947398108870213
0.7868609976662736
0.7913513598149682
0.8009054349551623
0.40765512701070894
1.0058778862972066
0.36974041618848036
0.9180404626609676
-0.0012281102906201036
0.05077607309757473
0.03969920526587423
0.5974378179057269
0.06995965900971408
0.002096606940339327
0.05988052315670187
0.08157835512486263
0.413393551708554
0.5617545799456688
0.029926899434214015
0.19389741027347568
-0.0018223297057608071
1.000076019587126
0.9189177148505836
0.43383659175333866
0.5704649566621245
0.6276633580367186
0.9393204381949456
0.05112362470720461
0.05017039081128522
0.9982445024502531
0.030280476261068903
0.5060821639438444
0.32531466988700414
0.11870216994445197
-0.0008421584617590147
0.7918288441333545
0.9494502358491863
0.1443745377583803
0.12556209429938678
0.8544755045371969
1.0017357023690028
0.044722203771066726
0.9437709082032529
0.9432195020414575
0.444398560183237
0.44290453552093473
1.000803341238906
0.2141675762147179
0.3346772977657475
0.3742857052556832
0.0002632240334581038
0.9677996716006269
0.968711226927915
0.2445560460599079
0.59725582362322
0.832544034282293
0.8351746762265315
0.18890105640092766
0.8310654510513934
0.23214500504765734
0.8821700211192625
0.8808683115164699
0.6196737557861053
0.8946773932134492
0.6198511697326963
0.05110850905302099
0.9505882565695337
0.393138569095936
0.623522782149317
0.3760647446118514
-0.007213105371842183
0.3126968431150184
0.05683206241368763
-0.0004931536214001934
0.5674540301382653
0.1152697431864167
0.22027291336288787
0.0860945539401523
0.8002961862584047
0.8744612967309914
0.9760498162013768
0.5856850188765568
0.00325829226505572
0.40417660999727006
0.07769682246473356
0.9992145814793284
1.0002123555087823
-0.0009711446366069828
0.0579294369681244
0.9460353369572914
0.00040031793982925844
-0.0042029855825592485
0.23326536433323167
0.7684157966495112
0.4368650940508151
1.002832924028105
0.22327697362460583
0.8201002391795268
0.19787019093473643
0.8092628530363232
0.19057100158152776
0.9787090290117069
0.001630041210458363
0.40929328932426295
1.0008866356754493
0.9586313084746034
0.043336595045268815

SCALARS Omega double
LOOKUP_TABLE default
-7.676493378190966
-1.1842890178990981
8.571661402140995
15.920189593795723
36.510936413680234
-6.477758092466802
2.4232970006415173
-4.464838422816942
-0.4278988816113009
1.923210009933003
0.047894489022332724
-0.6375196383997592
0.4851293755566437
1.1456971484014549
0.23182618882356704
0.8260820973229478
0.5445481127219218
0.7948200996177391
1.5527554514255812
-0.09229536981522847
1.408915873430005
1.2416660809209925
-0.4226663666389961
0.48742947283643545
1.066425174832107
1.0393108551915025
0.7592131364440874
0.2401911676738501
0.4601623147325298
1.4226586267961583
1.1090711124782768
0.16131377456158127
1.3307955537216936
0.8591949614457604
0.4158281508048771
1.1190372777278554
0.7528617996629832
0.377996438060098
1.3140101649518972
0.6766824260796819
1.383093751642104
0.698622627101296
0.43317308734821947
0.3534888395797797
0.945469687591388
0.7275107055122381
2.1359190818341856
0.4659664810301842
-0.4724475385322512
2.170371124374552
0.8755030846055915
1.8712029993686308
9.588572755817191
-7.814048128368341
0.5554166480278574
2.8270983616921
1.616730478001932
-0.10136424340645546
-1.1219363637202557
-2.608880620978234
-3.27212712874416
-1.5751398069350784
-0.2578585434537688
-0.6609180601097769
-1.0628835716495013
-0.12817293967859258
-0.7084641963442909
-0.3783718280885557
-1.065836406532778
-0.8158518574926845
-0.30886009832218264
-0.7176073899533619
-0.4572420432424085
0.10054068569104513
-1.7683064783765055
-0.6470793091664456
0.38925680973878546
-1.4971875429565094
-0.5999468262623568
-0.2959592026072705
-1.1163069432683428
-0.8105618110331425
-0.42534342944164344
-1.1103122547344098
-0.8923394888532842
-1.4267728341902421
-0.16235794086983188
-0.5567759717117688
-0.9765540018696753
-1.0924725374212934
-0.7440245174719848
0.6951039359958361
-1.401275675475235
-1.229543568198411
0.21148563102106543
-0.8524459593492816
-1.1180591412765462
-0.16147222632855407
-0.5567596807174592
-1.5263964844940519
-1.531008640426548
-0.3936850706231913
-1.9063780424136907
-0.4860919590837993
-2.0723582332317836
-0.4988777442773235
-0.14003102261242062
-2.0695297685074308
-1.9109703543115213
-0.8190368700296343
0.7511210184967175
-4.592711117063819
2.6458079017772933
0.3120404241957885
-0.025410175304650926
-0.8569634706309219
1.6497766447196345
-5.889244326345039
-2.3403563300290413
-42.608371218212945
-0.5126032859075212
0.5133622357420673
0.09661171499408998
-0.09012196150390415
-0.30255058447358013
-0.24370089298745348
0.14168066749756078
-0.3759875774624028
-1.9402548467890326
3.127250961415323
2.852524294811692
-2.9112813112518987
-2.9194653811667703
-2.6183604817227817
-2.8317247826562917
-2.046117308755061
3.1167844691645215
3.114655765260428
3.0641425028538523
3.107661853325735
2.3168578010580014
3.1128905630902484
-3.4916853894576865
3.94969751421717
-2.5858956130146695
-4.130153669891939
-4.091555635069653
5.2156900338270855
4.357117272026585
4.152142822825274
-4.797237924269242
-4.408758182772239
-4.303116740143517
-4.0974197906135155
4.288124142833823
4.0922502845907545
4.330565171042947
1.9687065654879825
4.625880968621778
-3.9674886511942224
-1.7028394421892377
-4.721478426701056
-5.068124296528122
-1.42162193594944
-0.2109318757864715
0.752864381866376
-6.281850949776622
-5.454956398067687
5.059300814417802
-5.152489766004632
5.265657995742399
5.066063049867569
-1.2638867824617108
-4.899324960864316
0.21098993964007628
0.13346784283026158
0.11163946918027239
-0.17111376544431753
0.027399885902580395
-0.18280786026775156
0.0631365384654526
-0.11275925965475599
0.1466896664845664
0.19123485396228895
0.2371501310934105
-5.622724779947309
5.392270256842456
7.3328417077022445
-5.772943707679865
5.871131503606921
5.880518377029155
6.150660971214111
-5.3737041046449665
5.643072609712517
5.265101297331524
-5.583376584390691
-5.486467917909344
-6.39395250856512
6.506162545280603
5.64947955950372
5.775626418766078
0.36113617486013483
13.251912714050027
5.603863425375925
-5.546685922178888
2.429792697609114
2.2667731100429207
-2.631123155288318
-5.43805834050537
-2.3408520250039464
-5.917077144696896
2.7010572808126003
-2.5945176765034463
-2.517338121216065
-1.8805197960117466
2.1976353631416994
2.35169234842956
-5.583610818970896
0.0863409959665386
6.052490257266391
1.9712998500279708
-2.4611729595551157
-1.8663483217903658
2.5065488226917365
5.625023081387784
-2.00085467203738
-1.2681854089669995
0.7312659939689143
2.6570210540571586
-6.109731356071577
-1.8664182102080098
-6.155479595498637
-6.1181654143940305
-6.287250844134848
-2.091072165391438
-6.179555129142857
-4.5179848439609955
2.4862937027790566
-2.28563846448755
-2.586912053887296
2.562216947631886
2.4560758827957128
-2.4157826857492166
-1.5454550918664247
1.655078417267216
1.7590796997638316
1.7882174520107363
2.1695791220927663
3.047168457843105
5.710919026078898
-6.465730469851096
-7.478756309097095
-6.641197518095351
-8.339249037293644
6.261664218021305
6.834767648424119
-1.7488363766003383
6.672416625878562
-0.9134058761400083
-1.0065855551464864
6.572816715233212
-5.346558359806322
7.963329192889256
6.007680564915317
-6.123184556221014
5.596272673084149
-2.340080916995626
5.619741553773514
7.0136006193430545
-2.339133597658716
-8.325119836893737
-10.849656119815148
-8.805224616066432
6.560399535115564
5.759943089369738
-1.035828618319276
7.10103979650453
-2.1676822778628093
-7.825028392235522
2.2309106964486483
-2.0895857904343855
-1.9988887874586854
23.70268304214853
-6.213844930333603
2.193581490940071
-3.4610201846940982
3.662565733789171
3.42542295941969
3.420943225534561
7.467687009264674
1.625786347495436
-8.223920706574836
8.34082781722471
6.8224318626236995
-1.4502106451406722
-1.7629402547492672
-3.4907357789958633
6.681811029744203
-6.618304978600927
4.1437120247587025
-2.136398549638175
-3.760123608137629
-0.44595351343522543
-6.257965202786935
3.282476295265284
7.460019142527278
5.575131078972821
-4.2966502300360485
-3.385651930523778
-9.953033695180942
-0.5305427941204061
-8.049806129237082
-1.4071302296371415
-3.2726114834352975
-8.567029031779407
-7.795230055772067
-0.9147673997066889
-0.6559959596174306
-0.8279375509606628
0.7748342228318589
1.0150473283486334
-7.172006988757457
1.4482172758111027
-9.077522839795478
2.017445285564346
-4.192360746625321
-4.132549634436874
9.500220372736091
3.308906828331938
-3.113868182788244
3.3057439752498277
-3.4400534462187697
-3.228924470863123
3.4638818735901857
6.7061691217459405
-6.332761025101089
-4.2530850761511285
4.155597199809663
-4.139302997369372
-1.284330473266151
1.1500964069933137
6.0881396048038665
-9.771144690657591
-0.7769409085762332
-0.7318285090354694
1.1403050897498208
1.0084172633704966
0.8813817569209005
-6.701721106474582
-8.02343843404529
-3.907923407816196
4.194284983460206
4.082784545733695
0.9902874773481015
-0.923241107789129
-0.7077621936824667
-8.728961301798421
0.9777630398862395
4.410246402375261
-4.13684196518247
9.368121165499163
-3.2768538100904983
-0.44043781778183955
0.20468269641779469
-0.9448944090545079
3.988464236024353
0.24060521654781258
8.363738654117093
-0.43247952360759834
6.5758657045065965
6.126405626016388
4.544239077036457
5.498884338454931
2.6714616502849324
-7.540865751510812
-1.2883461032881651
2.136252428808391
0.8247419186529135
1.8615603057239012
-2.1949708937162797
-4.602476543075492
-10.004448183099768
-0.6262528553999
0.7356179759991547
3.676975352669591
0.7367808927978291
-0.5753939642038737
-0.48778355885085045
5.485965615839636
4.903912900781037
-4.0672248324859845
-4.206213653120235
4.03832883663456