# vtk DataFile Version 1.0
2D Simulation C++
ASCII
DATASET UNSTRUCTURED_GRID
FIELD FieldData 1
NODES 1 2 int
715 1308

POINTS 715 double
0.0 0.0 0.0
5.0 0.0 0.0
5.0 1.0 0.0
0.0 1.0 0.0
0.10000000149011612 1.0 0.0
0.20000000298023224 1.0 0.0
0.30000001192092896 1.0 0.0
0.4000000059604645 1.0 0.0
0.5 1.0 0.0
0.6000000238418579 1.0 0.0
0.699999988079071 1.0 0.0
0.800000011920929 1.0 0.0
0.8999999761581421 1.0 0.0
1.0 1.0 0.0
1.100000023841858 1.0 0.0
1.2000000476837158 1.0 0.0
1.2999999523162842 1.0 0.0
1.399999976158142 1.0 0.0
1.5 1.0 0.0
1.600000023841858 1.0 0.0
1.7000000476837158 1.0 0.0
1.7999999523162842 1.0 0.0
1.899999976158142 1.0 0.0
2.0 1.0 0.0
2.0999999046325684 1.0 0.0
2.200000047683716 1.0 0.0
2.299999952316284 1.0 0.0
2.4000000953674316 1.0 0.0
2.5 1.0 0.0
2.5999999046325684 1.0 0.0
2.700000047683716 1.0 0.0
2.799999952316284 1.0 0.0
2.9000000953674316 1.0 0.0
3.0 1.0 0.0
3.0999999046325684 1.0 0.0
3.200000047683716 1.0 0.0
3.299999952316284 1.0 0.0
3.4000000953674316 1.0 0.0
3.5 1.0 0.0
3.5999999046325684 1.0 0.0
3.700000047683716 1.0 0.0
3.799999952316284 1.0 0.0
3.9000000953674316 1.0 0.0
4.0 1.0 0.0
4.099999904632568 1.0 0.0
4.199999809265137 1.0 0.0
4.300000190734863 1.0 0.0
4.400000095367432 1.0 0.0
4.5 1.0 0.0
4.599999904632568 1.0 0.0
4.699999809265137 1.0 0.0
4.800000190734863 1.0 0.0
4.900000095367432 1.0 0.0
5.0 0.8999999761581421 0.0
5.0 0.800000011920929 0.0
5.0 0.699999988079071 0.0
5.0 0.6000000238418579 0.0
5.0 0.5 0.0
5.0 0.4000000059604645 0.0
5.0 0.30000001192092896 0.0
5.0 0.20000000298023224 0.0
5.0 0.10000000149011612 0.0
4.900000095367432 0.0 0.0
4.800000190734863 0.0 0.0
4.699999809265137 0.0 0.0
4.599999904632568 0.0 0.0
4.5 0.0 0.0
4.400000095367432 0.0 0.0
4.300000190734863 0.0 0.0
4.199999809265137 0.0 0.0
4.099999904632568 0.0 0.0
4.0 0.0 0.0
3.9000000953674316 0.0 0.0
3.799999952316284 0.0 0.0
3.700000047683716 0.0 0.0
3.5999999046325684 0.0 0.0
3.5 0.0 0.0
3.4000000953674316 0.0 0.0
3.299999952316284 0.0 0.0
3.200000047683716 0.0 0.0
3.0999999046325684 0.0 0.0
3.0 0.0 0.0
2.9000000953674316 0.0 0.0
2.799999952316284 0.0 0.0
2.700000047683716 0.0 0.0
2.5999999046325684 0.0 0.0
2.5 0.0 0.0
2.4000000953674316 0.0 0.0
2.299999952316284 0.0 0.0
2.200000047683716 0.0 0.0
2.0999999046325684 0.0 0.0
2.0 0.0 0.0
1.899999976158142 0.0 0.0
1.7999999523162842 0.0 0.0
1.7000000476837158 0.0 0.0
1.600000023841858 0.0 0.0
1.5 0.0 0.0
1.399999976158142 0.0 0.0
1.2999999523162842 0.0 0.0
1.2000000476837158 0.0 0.0
1.100000023841858 0.0 0.0
1.0 0.0 0.0
0.8999999761581421 0.0 0.0
0.800000011920929 0.0 0.0
0.699999988079071 0.0 0.0
0.6000000238418579 0.0 0.0
0.5 0.0 0.0
0.4000000059604645 0.0 0.0
0.30000001192092896 0.0 0.0
0.20000000298023224 0.0 0.0
0.10000000149011612 0.0 0.0
0.0 0.10000000149011612 0.0
0.0 0.20000000298023224 0.0
0.0 0.30000001192092896 0.0
0.0 0.4000000059604645 0.0
0.0 0.5 0.0
0.0 0.6000000238418579 0.0
0.0 0.699999988079071 0.0
0.0 0.800000011920929 0.0
0.0 0.8999999761581421 0.0
0.7496038675308228 0.5164291858673096 0.0
1.3451675176620483 0.5190238952636719 0.0
1.9462687969207764 0.4963642954826355 0.0
4.456614971160889 0.5060901641845703 0.0
3.864220380783081 0.4866538345813751 0.0
3.249823808670044 0.482722669839859 0.0
2.6500000953674316 0.5 0.0
0.3810288906097412 0.399004191160202 0.0
2.308779239654541 0.3797946870326996 0.0
1.0499999523162842 0.6625000238418579 0.0
1.644740104675293 0.6598879098892212 0.0
4.150000095367432 0.3375000059604645 0.0
3.555316209793091 0.3343118131160736 0.0
2.9446933269500732 0.3401789665222168 0.0
1.6342840194702148 0.3290160894393921 0.0
1.0591840744018555 0.33908534049987793 0.0
2.9654481410980225 0.6753292679786682 0.0
3.5534629821777344 0.6835107207298279 0.0
4.153462886810303 0.6835107207298279 0.0
2.2139804363250732 0.6805098056793213 0.0
0.4914395809173584 0.6739721894264221 0.0
4.691666603088379 0.6916666626930237 0.0
4.691666603088379 0.3083333373069763 0.0
2.4872219562530518 0.7236665487289429 0.0
0.6240421533584595 0.2677222192287445 0.0
2.0697431564331055 0.2657754421234131 0.0
2.5389034748077393 0.26082900166511536 0.0
0.8147311806678772 0.7450684309005737 0.0
1.2897310256958008 0.743314266204834 0.0
1.8853894472122192 0.7450258731842041 0.0
4.382374286651611 0.23655959963798523 0.0
3.910269021987915 0.25668570399284363 0.0
3.1838724613189697 0.25397706031799316 0.0
1.398239254951477 0.2614254057407379 0.0
3.201760768890381 0.7385746240615845 0.0
3.8017609119415283 0.7385746240615845 0.0
4.39177942276001 0.7466779351234436 0.0
0.25301694869995117 0.7458874583244324 0.0
2.7258167266845703 0.7600342631340027 0.0
0.84163498878479 0.2263137847185135 0.0
0.22429518401622772 0.22429518401622772 0.0
2.7605957984924316 0.22504857182502747 0.0
1.8330284357070923 0.2150011658668518 0.0
0.2192869633436203 0.5323538780212402 0.0
4.7908525466918945 0.5038931369781494 0.0
2.466000556945801 0.5376454591751099 0.0
3.7061264514923096 0.17723728716373444 0.0
3.3929696083068848 0.20266839861869812 0.0
1.4905184507369995 0.7937026619911194 0.0
1.2104878425598145 0.20361483097076416 0.0
3.9895122051239014 0.7963851690292358 0.0
3.389512300491333 0.7963851690292358 0.0
0.5652223825454712 0.5070380568504333 0.0
0.44509074091911316 0.19716571271419525 0.0
2.1318352222442627 0.5042122602462769 0.0
1.548349142074585 0.4954715371131897 0.0
3.050636053085327 0.5004673004150391 0.0
0.9511125087738037 0.498258113861084 0.0
3.651650905609131 0.5045284628868103 0.0
4.248488903045654 0.4980509281158447 0.0
1.1537858247756958 0.49593159556388855 0.0
4.050199031829834 0.49993085861206055 0.0
3.464722156524658 0.509624183177948 0.0
1.749653697013855 0.5001751780509949 0.0
2.851828098297119 0.5057260394096375 0.0
2.359710216522217 0.1888567954301834 0.0
2.0499017238616943 0.8199846148490906 0.0
0.6430503129959106 0.8181284070014954 0.0
4.560274600982666 0.1724673956632614 0.0
4.55863094329834 0.8299665451049805 0.0
2.321284055709839 0.8242537379264832 0.0
4.815218925476074 0.8345447778701782 0.0
4.837246894836426 0.16590170562267303 0.0
0.9682294130325317 0.8331464529037476 0.0
1.730908751487732 0.827606201171875 0.0
4.220076560974121 0.17516615986824036 0.0
3.02066969871521 0.18326662480831146 0.0
1.5634372234344482 0.17044226825237274 0.0
3.035303831100464 0.8294908404350281 0.0
3.627507209777832 0.8360387086868286 0.0
4.2312469482421875 0.8315803408622742 0.0
4.618130683898926 0.5361976027488708 0.0
0.40311703085899353 0.8369210362434387 0.0
1.1473191976547241 0.8458209037780762 0.0
4.052680969238281 0.15417908132076263 0.0
2.020958423614502 0.6394158005714417 0.0
0.662188708782196 0.6447370648384094 0.0
4.5115838050842285 0.3538685142993927 0.0
1.0221220254898071 0.15309639275074005 0.0
0.3837882876396179 0.5515117049217224 0.0
3.548090934753418 0.15800617635250092 0.0
1.4348299503326416 0.6465393304824829 0.0
3.765170097351074 0.3534606993198395 0.0
3.3348300457000732 0.3534606993198395 0.0
1.2546738386154175 0.36384353041648865 0.0
3.945326089859009 0.636156439781189 0.0
3.3412928581237793 0.637225866317749 0.0
2.1904795169830322 0.17066854238510132 0.0
0.16392111778259277 0.38331863284111023 0.0
2.87723445892334 0.8265392184257507 0.0
4.8459792137146 0.6499902606010437 0.0
4.845625400543213 0.34837812185287476 0.0
2.771622896194458 0.38129922747612 0.0
4.5222978591918945 0.6578375697135925 0.0
2.604464530944824 0.8240283727645874 0.0
1.8544400930404663 0.3751189708709717 0.0
0.8566747903823853 0.38255012035369873 0.0
2.2932615280151367 0.5369129776954651 0.0
2.620572805404663 0.6496497392654419 0.0
0.7172287106513977 0.1490369737148285 0.0
0.1410960853099823 0.8303417563438416 0.0
1.7142322063446045 0.142862930893898 0.0
2.6314175128936768 0.14492936432361603 0.0
1.9832650423049927 0.1408119648694992 0.0
2.445650577545166 0.370038241147995 0.0
2.885042667388916 0.1455758661031723 0.0
0.13937503099441528 0.6546638011932373 0.0
0.9110832810401917 0.6349053978919983 0.0
3.088575839996338 0.3613528311252594 0.0
4.296638011932373 0.3563385307788849 0.0
1.1930090188980103 0.6355591416358948 0.0
1.788455843925476 0.6387236714363098 0.0
4.006990909576416 0.3644408583641052 0.0
1.4459187984466553 0.39242905378341675 0.0
4.354081153869629 0.6075709462165833 0.0
3.7540812492370605 0.6075709462165833 0.0
3.1591691970825195 0.6018876433372498 0.0
2.7615907192230225 0.6205627918243408 0.0
2.36276912689209 0.6735464930534363 0.0
1.3681535720825195 0.8630191683769226 0.0
3.8318464756011963 0.1369808316230774 0.0
3.275517463684082 0.10712132602930069 0.0
0.5630941987037659 0.12814241647720337 0.0
1.3237862586975098 0.10638008266687393 0.0
3.2733232975006104 0.8705052733421326 0.0
3.8733232021331787 0.8705052733421326 0.0
2.0396511554718018 0.38928428292274475 0.0
2.2168734073638916 0.8508136868476868 0.0
0.5163488388061523 0.3409615159034729 0.0
0.6547463536262512 0.3955095112323761 0.0
1.9480526447296143 0.8710126876831055 0.0
4.689375877380371 0.13700176775455475 0.0
4.698264122009277 0.8675068616867065 0.0
0.7578787803649902 0.8698469996452332 0.0
2.479548454284668 0.13692785799503326 0.0
2.4562506675720215 0.8735422492027283 0.0
2.171211004257202 0.3573116958141327 0.0
3.5117530822753906 0.853193998336792 0.0
4.107914924621582 0.8658969402313232 0.0
2.640726327896118 0.354434996843338 0.0
4.346996307373047 0.1279495507478714 0.0
0.3128283619880676 0.11246757209300995 0.0
0.136248379945755 0.12152919173240662 0.0
4.453908443450928 0.8629162907600403 0.0
1.6064813137054443 0.8679171800613403 0.0
0.3380795121192932 0.6626779437065125 0.0
0.5102446675300598 0.875635027885437 0.0
0.7425088882446289 0.2989330589771271 0.0
3.1349449157714844 0.10448489338159561 0.0
1.3287748098373413 0.6181886196136475 0.0
3.871795415878296 0.38215625286102295 0.0
3.229135036468506 0.3810797333717346 0.0
0.28971707820892334 0.8759857416152954 0.0
0.9214505553245544 0.11992674320936203 0.0
1.9219478368759155 0.6237660050392151 0.0
1.530794620513916 0.29603153467178345 0.0
3.072223663330078 0.7044162750244141 0.0
3.6722235679626465 0.7044162750244141 0.0
[...]
POINT_DATA 715
SCALARS Psi double
LOOKUP_TABLE default
0.0
0.0
1.0
1.0
1.0
1.0
1.0
1.0
1.0
1.0
1.0
1.0
1.0
1.0
1.0
1.0
1.0
1.0
1.0
1.0
1.0
1.0
1.0
1.0
1.0
1.0
1.0
1.0
1.0
1.0
1.0
1.0
1.0
1.0
1.0
1.0
1.0
1.0
1.0
1.0
1.0
1.0
1.0
1.0
1.0
1.0
1.0
1.0
1.0
1.0
1.0
1.0
1.0
0.9192347892522528
0.8654998112639277
0.7642887842519294
0.6280633533791454
0.4709181780156828
0.31262052716021116
0.1743141289788603
0.07158174884806333
0.018861578629542845
0.0
0.0
0.0
0.0
0.0
0.0
0.0
0.0
0.0
0.0
0.0
0.0
0.0
0.0
0.0
0.0
0.0
0.0
0.0
0.0
0.0
0.0
0.0
0.0
0.0
0.0
0.0
0.0
0.0
0.0
0.0
0.0
0.0
0.0
0.0
0.0
0.0
0.0
0.0
0.0
0.0
0.0
-0.0
0.0
0.0
0.0
0.0
0.0
0.0
0.027348981350179803
0.10769482269954848
0.20923042249868798
0.31087379951761107
0.41246438496170906
0.510818969964517
0.6026377979650775
0.6784506061701082
0.6416407235238432
0.5300427153007543
0.5435487400086505
0.5008435412487905
0.4939124491609038
0.46904477017458884
0.4713384072187308
0.5101572749226004
0.3204052212249933
0.30793790949666666
0.7747185162893038
0.7661082424196678
0.22698044033257012
0.22296621943499997
0.24555820749018983
0.2273447608206679
0.25484321550673117
0.7931562639728262
0.791084509065075
0.7883490938156074
0.7976942048621462
0.7598797542713691
0.7858788737152027
0.1768111853127908
0.8542654575622387
0.1568359087011296
0.14417650367346332
0.13938667528430318
0.8815977644630142
0.8775921608460572
0.8760942947064273
0.09127687490157885
0.12186181769320907
0.12284029777285163
0.13543573230071485
0.8695960845671932
0.8637293293514565
0.8689773098479266
0.7934724237827511
0.9003743367352744
0.11059266613766952
0.1112715726320382
0.09573300460631405
0.08218084790503292
0.46456836344536595
0.4797723210790976
0.5730379411851114
0.039866826385752736
0.06248942058001147
0.929897125321379
0.06977760562044137
0.9262932863069746
0.9269373467192566
0.49544759882265504
0.07117586612606686
0.5150993497921983
0.501240504338582
0.5072602249298664
0.5098439398788481
0.5010204571441558
0.4845960936912714
0.5069087855429948
0.4902053571497573
0.5120132196708725
0.507575594597156
0.5196704780876675
0.056993656192929266
0.953615232445793
0.9590459283116198
0.0367908141081529
0.9536264473471192
0.9593584265604925
0.9423358820208761
0.02829179078040675
0.9639103641177701
0.9568118619104448
0.04011999803552602
0.05198444870591014
0.04073527299356605
0.9654777164919578
0.9615967088515495
0.9584193861634955
0.5403004399999712
0.9786719419251686
0.9709310888645581
0.02958761193102473
0.7346709619246424
0.7344421331053768
0.24407736740804525
0.03679622798184376
0.5292876156841895
0.02890932380609869
0.7488063321026555
0.25076988913314435
0.255885286985604
0.28700985040664523
0.7171252010236878
0.7244938166148093
0.043947602270009996
0.29479703761072806
0.9645510513668116
0.7145047850005923
0.2277170211781464
0.3118591714713968
0.7432219448575959
0.9598989144913864
0.29899742033737353
0.32229658464388333
0.5706730911386212
0.7548759058811922
0.03726301940672408
0.8225963250836641
0.02544152816039363
0.027008872408338908
0.024859136889524933
0.29366953238071447
0.026084554681471996
0.5837989300017082
0.7316560562803263
0.27540361055170065
0.25205019627353614
0.7337696226143919
0.7329831378941406
0.268838039336817
0.329562355202418
0.6668574899540827
0.6726407593597366
0.6741182123143823
0.7098764940473186
0.7864824324950918
0.9792108388741454
0.01754915728289815
0.001835495956920249
0.02126366249415226
0.0011057805546049702
0.9815491676564547
0.9824673317049867
0.3229763881592434
0.9760681053929277
0.2496330977076021
0.3344800411341124
0.9853587773543435
0.0196133393469907
0.9788682540355786
0.9849576766862322
0.023011479395496925
0.9841580132525671
0.2726716891040832
0.9699720675085289
0.9804049033974114
0.27028291992603815
0.005704444952096651
0.006011648417333407
0.022590011109304566
0.977470014386229
0.9812525935213404
0.6942314268704235
0.9922292963107142
0.1999774963169967
0.0030229704224057205
0.7056539840889816
0.2965930563703298
0.30289111325342566
1.0187570202563743
0.02183731571817258
0.7094809522444974
0.1812455253385945
0.8302735471848134
0.8186337953027948
0.815511950620023
1.0057689586531677
0.6891640425346853
0.0041071600241908614
0.9947870072809682
0.9944067501628214
0.1550623682962648
0.3241822024486234
0.18228827048755927
0.9957631978036046
0.003636013281653429
0.8691503351557798
0.29164800945442865
0.12749633144933356
0.3409445231525595
0.011462230544112377
0.1619969495769559
0.9905911261590876
0.9901145228974065
0.12535840985655594
0.18998158593238726
-0.0015314146486507185
0.4415402405124699
-0.0034805426485733015
0.4047657922765533
0.1925387487191684
-0.0037304832031356577
0.0007457194026455325
0.40961890664886685
0.4283974681999956
0.4142633768225902
0.5925049531647977
0.5909788212704318
0.0030959826114261763
0.5523108719159975
0.00159987791600928
0.6951939533064688
0.12856169360019334
0.6021276793965674
1.0011450058941422
0.8055648514578305
0.1732265520150519
0.8038930521168146
0.18206766325043364
0.20023881009987685
0.8169591295612136
0.9983410674201262
0.0015936642938750283
0.13102143118820342
0.8664634114998235
0.13318128372552726
0.33047488315625584
0.6185927699096979
0.8280643685298946
0.10541436565087613
0.4083217908853015
0.41668899611655236
0.6119030177675888
0.5984041343709764
0.5921783468482528
0.02034848631496744
0.6538767086871106
0.13746512698004745
0.866387018756905
0.8623140633907794
0.5958199673079015
0.40769107698411516
0.4238375388946789
0.0037358450146348383
0.5895106681111866
0.8686644735019478
0.13327459150256007
1.0063567490362546
0.1947070952973289
0.5743018468359848
0.6579331866175988
0.4057771489737157
0.8626185005628175
0.5815013110141221
0.9992410122306529
0.4513360347004166
0.988399904348878
0.9876020492293712
0.8963138974529006
0.8673364127146613
0.9584438997418482
0.005989579809066339
0.42401281796640816
0.7088491573665308
0.5767708972761191
0.6823921731688587
0.36689581903167146
0.1040858212499596
-0.0013923141489122193
0.4396450677564536
0.21144074919826458
0.8402852095059656
0.564722397550501
0.44081809224727625
0.4469607697212476
0.8513358352649498
0.8765772199924574
0.13745832847246628
0.12210115491757606
0.8687496178311791
0.4100129452129371
0.99910146513731
0.14237809761550987
0.9053571301999835
0.9064077279749854
0.35813774434951146
0.9177494018417353
1.0040512965256363
0.11351978172497125
0.14240266920449995
0.6767389783257961
0.32400243570923315
0.678150039810993
0.6899166703572208
0.08432455091038675
0.6695994821848494
0.3343085817212243
0.3343137637697137
0.006507340758952605
0.47429106829342443
0.26243850366560034
0.7383677376400761
0.7658571348803118
0.3394588001773957
0.8773325924289415
0.6669815819926285
0.662271630949254
0.6356287000147938
0.007614466739867299
0.007439760016788848
0.13039380978922824
0.8236807986400159
-0.0030584926505642335
0.9160075569497537
0.9159557562510124
0.8481256249881532
-0.003381307947340659
-0.002784026905757197
0.1901407561493296
0.3412858101321761
0.00021233990873531681
1.0004351694206555
0.336973146081087
0.8873259114200467
1.0001903274854451
0.8834591797488055
0.11922519585753535
1.0058001466665485
-0.0014890254165035002
0.10269417401300851
0.995495121788612
-0.0004649368003728788
0.31751742759766843
0.0005947787592878581
0.6912927457811486
0.0036651306312853243
1.0019963608253448
1.0044238410310913
0.1115163878265372
0.49314575038230457
0.15047309908288092
0.997797393117832
0.8864360210311708
0.9988937441600256
0.32815747744249063
0.9993673273975294
1.0027991083570433
0.1333031098764294
0.08774747384225459
6.636421671993363e-05
0.27981800167929044
0.6488716500610309
0.5856553984064509
0.4122299305678932
0.5625621412941799
1.0040028457122936
0.25554032844821645
0.5712426568765767
0.9999251311661173
0.00034107809081667084
-0.0013376302794189878
0.19362093717165021
0.40715721662802795
0.5788267677417223
-0.0018261240255323951
0.9211634710130023
1.0052086201970507
0.8847970726993651
0.09065794694239113
0.9147369042815159
0.9083145775273562
0.6346798740197728
0.07746684444722997
0.8959595995833294
-0.0018935663246909284
0.27943831201567987
0.0026135051509583525
0.9331225716744082
0.06674400891337097
-0.0014847401972545402
0.5885439615227952
0.5399676449520653
1.004252976544765
1.015445988441268
1.0015064841883903
0.0012936423611971167
0.43354616675562363
0.6801168210267621
0.6878906708729169
0.6818499555494751
0.3192645130441809
0.3153654489433828
0.33070940100572893
0.9439965487990621
1.035379901050603
0.9974025193734722
0.9947272103594892
0.9634692972168917
0.6847720137379045
0.7572981081830332
-0.002007625468866685
0.06494571840978651
0.7912408681593994
0.7061652468699925
0.23062561081990804
0.8726694124628868
0.08481579964579872
0.07549446780153274
0.7185466584803986
0.6201951239933878
0.4344501815278847
0.998091772109876
1.001233929466215
0.7738750818872787
0.10034969995203434
0.9311815469909972
0.21230546183199694
0.9524797738183315
0.053322441380816335
1.000354489421908
0.002154365641851236
0.3667306758287623
0.6126837969822857
0.36173637812219095
0.8332894452821479
0.04152290728842453
0.5915337771931011
0.3755276323772934
0.8391154966331227
-0.0011712872537878675
-0.0035458063286634856
0.18944926140450344
0.17467815733416212
0.05621992029877385
0.10405870567349886
0.9457055998253271
0.8419201194821034
0.15936667165281262
0.8016505141237501
0.20355443739806425
0.9068474100025683
0.9031487646763295
0.9028253356710573
-0.004658378256754402
0.9412717576457044
0.3587248702899893
0.21668961686574367
1.0004860907860993
0.1687725400147241
0.5588407096478945
0.7139297604838039
0.6108176894613406
0.6411003412449052
0.043194165277225346
0.9524223408266078
0.9514397424446822
0.05552241940470601
0.6962943074968484
-0.006153315912327628
1.0058728071365672
1.0036959776248473
0.037224008571779564
0.04174632772847021
0.8948491338007726
0.2519151468185048
0.9480861096826374
0.4505773725070724
0.8601188393781974
-0.0003982851616054098
0.6445567523147749
0.35468163032398653
0.3661832539292546
1.0011098168767842
-0.0020919831268215432
0.5573405605146433
-0.007555400615887191
0.4132285212346409
0.06738601865977782
-0.0011410819922884165
0.23516848332138118
0.6270741723555291
0.7203125746984494
0.7843365479587195
0.950138427732387
0.04757199040136047
0.24137098154395517
0.184092207063681
0.7698058558446429
1.0044942799533902
0.23312271256004694
0.06838311394582886
0.18466974786068904
0.05349073403422883
0.9304316249266559
0.046394132402550706
0.20952571225230862
0.7865403725310105
0.7909696610768939
0.8007335474365536
0.40764135663067613
1.0058789354991047
0.3699074535513263
0.9179205294391277
-0.0012380544055286364
0.05086224511906389
0.03983043228719053
0.5976357992922617
0.07009324590335957
0.0020968080410818293
0.05988049001602101
0.08157837706464234
0.4137891075755105
0.5616080848190933
0.030016069486946746
0.19433032086436658
-0.001822325094833392
1.0000856414008152
0.9189135780790997
0.43383859911541267
0.5701489884358183
0.6274983346849213
0.9392998913110343
0.051158576957542924
0.05021485405085193
0.9982449402421303
0.03032245278990545
0.5060819662212473
0.32573454621931835
0.11869931381623214
-0.0008556969483988827
0.7918406903624444
0.949449472942069
0.14446854812245782
0.12562420407454203
0.8543970801441803
1.0017371222621543
0.044723671461225564
0.943659778563769
0.94307266902563
0.4445073833178178
0.44289705888598035
1.0008128080968695
0.21415964868455045
0.3346771921267942
0.37436569243823875
0.00026454397585926157
0.9677157088078066
0.9686381673136646
0.24455576164057816
0.596913882178141
0.8322090411978035
0.8349037385864104
0.18890590005443503
0.8310593340588159
0.23253060748506055
0.8819010125689224
0.880611099811341
0.6196575477289163
0.8946002024894857
0.6197166352238481
0.05118061655949707
0.9505854973332549
0.39334624631762277
0.623498086211404
0.3760363966451012
-0.007240644203792419
0.31269532710178505
0.056831834846671474
-0.0005041115491475239
0.5672776999939172
0.11534356362049022
0.22026384634345988
0.0860945312884414
0.8002869342781501
0.8744529108410559
0.9760472338697926
0.5856747151952768
0.003258330021703992
0.40437400394513023
0.07769279866018884
0.9992210481662429
1.000219860984176
-0.0009808056992219808
0.05792948567801411
0.94591836432488
0.000396230259123025
-0.004232550806183248
0.233349589156622
0.7683783931231765
0.4368646676411222
1.0028480177440107
0.22369291165151967
0.819889656469864
0.19803103203463948
0.8092127859139349
0.19065073542863437
0.9787121813799903
0.0016355259491316657
0.40973471100443465
1.0008871679780813
0.958609927783064
0.043442082869563074

SCALARS Omega double
LOOKUP_TABLE default
-7.67649083009685
-1.1860639110806732
8.56876567339979
15.920200695499439
36.51097229129347
-6.477741231046143
2.4233010330539186
-4.464966619253061
-0.42796666400052447
1.923095980426966
0.047726954400211234
-0.6377760185074649
0.4852360310788601
1.1455778664985854
0.23144449693587757
0.8260674100578368
0.5421961163208551
0.7941947655892233
1.5509100323071014
-0.0942797956592062
1.4074287657744384
1.2415106896776966
-0.427931693413541
0.48764779181139356
1.0672608730347353
1.0406487719420423
0.7583023525874674
0.24087611788433114
0.4597807974756156
1.422601766490417
1.1088499616418914
0.15985837083712578
1.3306881883582897
0.8578497336468798
0.41577335867807
1.1204812520099625
0.7528364327769861
0.3782329367853822
1.3165982435263628
0.6775781789159842
1.3862169756688647
0.7003646633668383
0.43286113630102613
0.35409707959233166
0.9473107013738508
0.728840459175208
2.1416129128847996
0.46648295011895996
-0.4759251748739312
2.1750341847655155
0.8780452760527154
1.8754442619175768
9.59139878726614
-7.804115746727139
0.5497763580210769
2.813373940613744
1.6087248680146145
-0.09976547459089286
-1.1084987902027963
-2.5956041845932156
-3.2615420708310454
-1.5843713852425554
-0.2605074128524085
-0.6654099839453149
-1.066420204163088
-0.1261333068357415
-0.7110450696879512
-0.3777928183324461
-1.0668157664560838
-0.8160953389803913
-0.3082253143142219
-0.7169950585566879
-0.4568735144551746
0.10262578156070908
-1.7694579658626806
-0.6464520920820622
0.39047586507872656
-1.4986803764739012
-0.6000125158187296
-0.2945702071715295
-1.1191995214709187
-0.811889274227958
-0.425956912772217
-1.113320903425133
-0.8949000216392604
-1.4313810851664905
-0.15965383646358025
-0.5562428926421731
-0.9799528146647511
-1.0963407605951996
-0.7448450828398844
0.6979808657279671
-1.4038780964447262
-1.2314015777397038
0.21402324068596648
-0.8528847892123564
-1.1177138584613324
-0.16019230149852884
-0.5560071095652634
-1.52614419136246
-1.5309304908632961
-0.39358668216758097
-1.906403615794391
-0.4861665299645797
-2.072389394613808
-0.49892597157671537
-0.14010810233619972
-2.0695346232650107
-1.910983304024056
-0.8190351740859897
0.7511197616213721
-4.5927129494938885
2.645807390417728
0.31203921752158503
-0.02541407231711246
-0.8569632738525844
1.6497698347843468
-5.889233828358469
-2.340330695953949
-42.60838885094641
-0.5128056916720205
0.512584186662678
0.09379217342045845
-0.09079291251199709
-0.3050874253958025
-0.24168495340198357
0.148763537873976
-0.3759041655699681
-1.9176864709886994
3.126748281508571
2.8374196285932003
-2.892338566294253
-2.9061149456147812
-2.5947082619183814
-2.8206744551190215
-2.0462617603289277
3.103038110476942
3.0917465228750505
3.039409096327074
3.0890428303594124
2.316635626572075
3.090090619141157
-3.4672674362907387
3.9410056722915687
-2.5859062764439877
-4.112806959359209
-4.074343487106639
5.215523886355793
4.356947227292269
4.139691988334015
-4.786946262175467
-4.3967203026397055
-4.294636857946586
-4.094912309054832
4.2763199931888805
4.078687492113302
4.316426088023336
1.9686294042660741
4.62037176203148
-3.967634880379723
-1.70283270725858
-4.713229907881951
-5.061831909728484
-1.4215751441235507
-0.20732747127799978
0.7505555332908094
-6.28359905252813
-5.455120262330006
5.0607714513806705
-5.153234327608647
5.2655744365818675
5.064312290841109
-1.2638324839231545
-4.8992574769186605
0.20726709567742044
0.13323834603041587
0.11526274278638934
-0.17157917729500152
0.020943404492569297
-0.18373020326267805
0.06271197498341331
-0.1161866653106916
0.1402379097994888
0.18889010813148022
0.2425934660581718
-5.627670891942693
5.397102934440146
7.33324567833024
-5.7816229006140265
5.877778113747027
5.884061404663678
6.1517598091914705
-5.387880905333673
5.643907541947367
5.273008335382304
-5.588341189031042
-5.491216026050663
-6.397414247262203
6.51108806649895
5.660358196032539
5.783616481559517
0.35418996959965027
13.252153586992122
5.606024434083333
-5.55331426526165
2.407194580022372
2.2664084109678115
-2.6050389116899457
-5.4379367578739455
-2.340752287270966
-5.920969341823954
2.694863897904334
-2.580279730104947
-2.503164195302425
-1.87922063485221
2.1729436914008455
2.3307010083297963
-5.589499325843721
0.08634657139319254
6.055660967126486
1.9478923818493485
-2.432524102997761
-1.8410523021686234
2.480017961628014
5.625759519479557
-1.9850482719373463
-1.2683963977838162
0.7238653665987402
2.6453953532650596
-6.109378817773667
-1.8664956925794565
-6.162801268091707
-6.133500294609451
-6.299743298975689
-2.0648518361392214
-6.195446772479807
-4.517937048657616
2.4857158500240635
-2.267731074126419
-2.56578601984478
2.5611554489121384
2.438010728772196
-2.398856273813451
-1.5413110325833412
1.633322445368756
1.737391269917797
1.773729083609777
2.1598386516100336
3.033531531778828
5.717241461129396
-6.473418684280855
-7.490216773386744
-6.641004068513527
-8.34147412787112
6.275406570054802
6.853730829938705
-1.73025057981518
6.68039135456172
-0.9133418621883886
-1.006532003982716
6.588818814822633
-5.363506017964451
7.979031054033399
6.008243167781349
-6.143794665225585
5.599391948088742
-2.315962602907846
5.632120770135862
7.030798037959748
-2.3099011811513366
-8.345164128874554
-10.849628770195737
-8.805221207459416
6.576638138967272
5.77160153262407
-1.03589127325097
7.101445952694349
-2.167790386401394
-7.8426787381797585
2.2283111017920083
-2.0762006053980406
-1.9854095271680983
23.7028392305802
-6.21349055844308
2.1740572207632938
-3.454161821296572
3.6487521132272613
3.405138253473071
3.3983400349715502
7.471527649555461
1.6253343242903144
-8.230131088121475
8.365775739148932
6.836014912990357
-1.450186413175387
-1.7391470268578781
-3.4706831454018103
6.682293190352624
-6.628998291534462
4.134659425679969
-2.115058618230202
-3.760442573079055
-0.4459077705732919
-6.274984161838302
3.2824729786552
7.476970660552387
5.575680091321343
-4.280216280283267
-3.3705280155332953
-9.953013505299575
-0.5165291138500789
-8.0822036324906
-1.4071212097292751
-3.24840356749151
-8.575082503753542
-7.8046225992844365
-0.9077446391053089
-0.6421705139494999
-0.8258119728527068
0.7741727086713349
1.0081069780454563
-7.195376921151883
1.4375125031422165
-9.098451270906704
2.0077660131635215
-4.175633627823702
-4.13249623373414
9.529544144092002
3.28694197998238
-3.1137291756684515
3.2850696727081776
-3.4273167580113055
-3.2154785554449794
3.4533185466805993
6.705222710867824
-6.347951033305473
-4.2411814863971244
4.152816282857521
-4.129601148887012
-1.2846159934284138
1.1334941038888695
6.044781264989714
-9.723078170342555
-0.7719892291822947
-0.7321374407250253
1.134869121103372
0.9931705426955207
0.8665450269839677
-6.701556584243607
-8.023387674129346
-3.9068138037421836
4.180087443806564
4.06741514359824
0.9892530113346824
-0.9182124596766772
-0.6987523225579566
-8.765012080219813
0.9663572026036991
4.410485475565945
-4.121471285111554
9.37777817069511
-3.2508620349203063
-0.4405954136619575
0.2044774424491527
-0.9322320570692134
3.9739534228464333
0.24017297796013656
8.373468773875643
-0.4234267325564787
6.597422216768479
6.143147092104311
4.538814942633285
5.4986721130145115
2.7004149214603834
-7.574380745225785
-1.2882043470753455
2.1245480432705226
0.8128536941211684
1.8412383268810117
-2.1604250635908704
-4.594159705779092
-10.004435764469234
-0.6204197602062681
0.7356331157895597
3.6598491705094265
0.7347236561743656
-0.5758422543448053
-0.4858499635782882
5.485755252947556
4.903851254357948
-4.056347702180751
-4.1900300558703965