# vtk DataFile Version 1.0
2D Simulation C++
ASCII
DATASET UNSTRUCTURED_GRID
FIELD FieldData 1
NODES 1 2 int
715 1308

POINTS 715 double
0.0 0.0 0.0
5.0 0.0 0.0
5.0 1.0 0.0
0.0 1.0 0.0
0.10000000149011612 1.0 0.0
0.20000000298023224 1.0 0.0
0.30000001192092896 1.0 0.0
0.4000000059604645 1.0 0.0
0.5 1.0 0.0
0.6000000238418579 1.0 0.0
0.699999988079071 1.0 0.0
0.800000011920929 1.0 0.0
0.8999999761581421 1.0 0.0
1.0 1.0 0.0
1.100000023841858 1.0 0.0
1.2000000476837158 1.0 0.0
1.2999999523162842 1.0 0.0
1.399999976158142 1.0 0.0
1.5 1.0 0.0
1.600000023841858 1.0 0.0
1.7000000476837158 1.0 0.0
1.7999999523162842 1.0 0.0
1.899999976158142 1.0 0.0
2.0 1.0 0.0
2.0999999046325684 1.0 0.0
2.200000047683716 1.0 0.0
2.299999952316284 1.0 0.0
2.4000000953674316 1.0 0.0
2.5 1.0 0.0
2.5999999046325684 1.0 0.0
2.700000047683716 1.0 0.0
2.799999952316284 1.0 0.0
2.9000000953674316 1.0 0.0
3.0 1.0 0.0
3.0999999046325684 1.0 0.0
3.200000047683716 1.0 0.0
3.299999952316284 1.0 0.0
3.4000000953674316 1.0 0.0
3.5 1.0 0.0
3.5999999046325684 1.0 0.0
3.700000047683716 1.0 0.0
3.799999952316284 1.0 0.0
3.9000000953674316 1.0 0.0
4.0 1.0 0.0
4.099999904632568 1.0 0.0
4.199999809265137 1.0 0.0
4.300000190734863 1.0 0.0
4.400000095367432 1.0 0.0
4.5 1.0 0.0
4.599999904632568 1.0 0.0
4.699999809265137 1.0 0.0
4.800000190734863 1.0 0.0
4.900000095367432 1.0 0.0
5.0 0.8999999761581421 0.0
5.0 0.800000011920929 0.0
5.0 0.699999988079071 0.0
5.0 0.6000000238418579 0.0
5.0 0.5 0.0
5.0 0.4000000059604645 0.0
5.0 0.30000001192092896 0.0
5.0 0.20000000298023224 0.0
5.0 0.10000000149011612 0.0
4.900000095367432 0.0 0.0
4.800000190734863 0.0 0.0
4.699999809265137 0.0 0.0
4.599999904632568 0.0 0.0
4.5 0.0 0.0
4.400000095367432 0.0 0.0
4.300000190734863 0.0 0.0
4.199999809265137 0.0 0.0
4.099999904632568 0.0 0.0
4.0 0.0 0.0
3.9000000953674316 0.0 0.0
3.799999952316284 0.0 0.0
3.700000047683716 0.0 0.0
3.5999999046325684 0.0 0.0
3.5 0.0 0.0
3.4000000953674316 0.0 0.0
3.299999952316284 0.0 0.0
3.200000047683716 0.0 0.0
3.0999999046325684 0.0 0.0
3.0 0.0 0.0
2.9000000953674316 0.0 0.0
2.799999952316284 0.0 0.0
2.700000047683716 0.0 0.0
2.5999999046325684 0.0 0.0
2.5 0.0 0.0
2.4000000953674316 0.0 0.0
2.299999952316284 0.0 0.0
2.200000047683716 0.0 0.0
2.0999999046325684 0.0 0.0
2.0 0.0 0.0
1.899999976158142 0.0 0.0
1.7999999523162842 0.0 0.0
1.7000000476837158 0.0 0.0
1.600000023841858 0.0 0.0
1.5 0.0 0.0
1.399999976158142 0.0 0.0
1.2999999523162842 0.0 0.0
1.2000000476837158 0.0 0.0
1.100000023841858 0.0 0.0
1.0 0.0 0.0
0.8999999761581421 0.0 0.0
0.800000011920929 0.0 0.0
0.699999988079071 0.0 0.0
0.6000000238418579 0.0 0.0
0.5 0.0 0.0
0.4000000059604645 0.0 0.0
0.30000001192092896 0.0 0.0
0.20000000298023224 0.0 0.0
0.10000000149011612 0.0 0.0
0.0 0.10000000149011612 0.0
0.0 0.20000000298023224 0.0
0.0 0.30000001192092896 0.0
0.0 0.4000000059604645 0.0
0.0 0.5 0.0
0.0 0.6000000238418579 0.0
0.0 0.699999988079071 0.0
0.0 0.800000011920929 0.0
0.0 0.8999999761581421 0.0
0.7496038675308228 0.5164291858673096 0.0
1.3451675176620483 0.5190238952636719 0.0
1.9462687969207764 0.4963642954826355 0.0
4.456614971160889 0.5060901641845703 0.0
3.864220380783081 0.4866538345813751 0.0
3.249823808670044 0.482722669839859 0.0
2.6500000953674316 0.5 0.0
0.3810288906097412 0.399004191160202 0.0
2.308779239654541 0.3797946870326996 0.0
1.0499999523162842 0.6625000238418579 0.0
1.644740104675293 0.6598879098892212 0.0
4.150000095367432 0.3375000059604645 0.0
3.555316209793091 0.3343118131160736 0.0
2.9446933269500732 0.3401789665222168 0.0
1.6342840194702148 0.3290160894393921 0.0
1.0591840744018555 0.33908534049987793 0.0
2.9654481410980225 0.6753292679786682 0.0
3.5534629821777344 0.6835107207298279 0.0
4.153462886810303 0.6835107207298279 0.0
2.2139804363250732 0.6805098056793213 0.0
0.4914395809173584 0.6739721894264221 0.0
4.691666603088379 0.6916666626930237 0.0
4.691666603088379 0.3083333373069763 0.0
2.4872219562530518 0.7236665487289429 0.0
0.6240421533584595 0.2677222192287445 0.0
2.0697431564331055 0.2657754421234131 0.0
2.5389034748077393 0.26082900166511536 0.0
0.8147311806678772 0.7450684309005737 0.0
1.2897310256958008 0.743314266204834 0.0
1.8853894472122192 0.7450258731842041 0.0
4.382374286651611 0.23655959963798523 0.0
3.910269021987915 0.25668570399284363 0.0
3.1838724613189697 0.25397706031799316 0.0
1.398239254951477 0.2614254057407379 0.0
3.201760768890381 0.7385746240615845 0.0
3.8017609119415283 0.7385746240615845 0.0
4.39177942276001 0.7466779351234436 0.0
0.25301694869995117 0.7458874583244324 0.0
2.7258167266845703 0.7600342631340027 0.0
0.84163498878479 0.2263137847185135 0.0
0.22429518401622772 0.22429518401622772 0.0
2.7605957984924316 0.22504857182502747 0.0
1.8330284357070923 0.2150011658668518 0.0
0.2192869633436203 0.5323538780212402 0.0
4.7908525466918945 0.5038931369781494 0.0
2.466000556945801 0.5376454591751099 0.0
3.7061264514923096 0.17723728716373444 0.0
3.3929696083068848 0.20266839861869812 0.0
1.4905184507369995 0.7937026619911194 0.0
1.2104878425598145 0.20361483097076416 0.0
3.9895122051239014 0.7963851690292358 0.0
3.389512300491333 0.7963851690292358 0.0
0.5652223825454712 0.5070380568504333 0.0
0.44509074091911316 0.19716571271419525 0.0
2.1318352222442627 0.5042122602462769 0.0
1.548349142074585 0.4954715371131897 0.0
3.050636053085327 0.5004673004150391 0.0
0.9511125087738037 0.498258113861084 0.0
3.651650905609131 0.5045284628868103 0.0
4.248488903045654 0.4980509281158447 0.0
1.1537858247756958 0.49593159556388855 0.0
4.050199031829834 0.49993085861206055 0.0
3.464722156524658 0.509624183177948 0.0
1.749653697013855 0.5001751780509949 0.0
2.851828098297119 0.5057260394096375 0.0
2.359710216522217 0.1888567954301834 0.0
2.0499017238616943 0.8199846148490906 0.0
0.6430503129959106 0.8181284070014954 0.0
4.560274600982666 0.1724673956632614 0.0
4.55863094329834 0.8299665451049805 0.0
2.321284055709839 0.8242537379264832 0.0
4.815218925476074 0.8345447778701782 0.0
4.837246894836426 0.16590170562267303 0.0
0.9682294130325317 0.8331464529037476 0.0
1.730908751487732 0.827606201171875 0.0
4.220076560974121 0.17516615986824036 0.0
3.02066969871521 0.18326662480831146 0.0
1.5634372234344482 0.17044226825237274 0.0
3.035303831100464 0.8294908404350281 0.0
3.627507209777832 0.8360387086868286 0.0
4.2312469482421875 0.8315803408622742 0.0
4.618130683898926 0.5361976027488708 0.0
0.40311703085899353 0.8369210362434387 0.0
1.1473191976547241 0.8458209037780762 0.0
4.052680969238281 0.15417908132076263 0.0
2.020958423614502 0.6394158005714417 0.0
0.662188708782196 0.6447370648384094 0.0
4.5115838050842285 0.3538685142993927 0.0
1.0221220254898071 0.15309639275074005 0.0
0.3837882876396179 0.5515117049217224 0.0
3.548090934753418 0.15800617635250092 0.0
1.4348299503326416 0.6465393304824829 0.0
3.765170097351074 0.3534606993198395 0.0
3.3348300457000732 0.3534606993198395 0.0
1.2546738386154175 0.36384353041648865 0.0
3.945326089859009 0.636156439781189 0.0
3.3412928581237793 0.637225866317749 0.0
2.1904795169830322 0.17066854238510132 0.0
0.16392111778259277 0.38331863284111023 0.0
2.87723445892334 0.8265392184257507 0.0
4.8459792137146 0.6499902606010437 0.0
4.845625400543213 0.34837812185287476 0.0
2.771622896194458 0.38129922747612 0.0
4.5222978591918945 0.6578375697135925 0.0
2.604464530944824 0.8240283727645874 0.0
1.8544400930404663 0.3751189708709717 0.0
0.8566747903823853 0.38255012035369873 0.0
2.2932615280151367 0.5369129776954651 0.0
2.620572805404663 0.6496497392654419 0.0
0.7172287106513977 0.1490369737148285 0.0
0.1410960853099823 0.8303417563438416 0.0
1.7142322063446045 0.142862930893898 0.0
2.6314175128936768 0.14492936432361603 0.0
1.9832650423049927 0.1408119648694992 0.0
2.445650577545166 0.370038241147995 0.0
2.885042667388916 0.1455758661031723 0.0
0.13937503099441528 0.6546638011932373 0.0
0.9110832810401917 0.6349053978919983 0.0
3.088575839996338 0.3613528311252594 0.0
4.296638011932373 0.3563385307788849 0.0
1.1930090188980103 0.6355591416358948 0.0
1.788455843925476 0.6387236714363098 0.0
4.006990909576416 0.3644408583641052 0.0
1.4459187984466553 0.39242905378341675 0.0
4.354081153869629 0.6075709462165833 0.0
3.7540812492370605 0.6075709462165833 0.0
3.1591691970825195 0.6018876433372498 0.0
2.7615907192230225 0.6205627918243408 0.0
2.36276912689209 0.6735464930534363 0.0
1.3681535720825195 0.8630191683769226 0.0
3.8318464756011963 0.1369808316230774 0.0
3.275517463684082 0.10712132602930069 0.0
0.5630941987037659 0.12814241647720337 0.0
1.3237862586975098 0.10638008266687393 0.0
3.2733232975006104 0.8705052733421326 0.0
3.8733232021331787 0.8705052733421326 0.0
2.0396511554718018 0.38928428292274475 0.0
2.2168734073638916 0.8508136868476868 0.0
0.5163488388061523 0.3409615159034729 0.0
0.6547463536262512 0.3955095112323761 0.0
1.9480526447296143 0.8710126876831055 0.0
4.689375877380371 0.13700176775455475 0.0
4.698264122009277 0.8675068616867065 0.0
0.7578787803649902 0.8698469996452332 0.0
2.479548454284668 0.13692785799503326 0.0
2.4562506675720215 0.8735422492027283 0.0
2.171211004257202 0.3573116958141327 0.0
3.5117530822753906 0.853193998336792 0.0
4.107914924621582 0.8658969402313232 0.0
2.640726327896118 0.354434996843338 0.0
4.346996307373047 0.1279495507478714 0.0
0.3128283619880676 0.11246757209300995 0.0
0.136248379945755 0.12152919173240662 0.0
4.453908443450928 0.8629162907600403 0.0
1.6064813137054443 0.8679171800613403 0.0
0.3380795121192932 0.6626779437065125 0.0
0.5102446675300598 0.875635027885437 0.0
0.7425088882446289 0.2989330589771271 0.0
3.1349449157714844 0.10448489338159561 0.0
1.3287748098373413 0.6181886196136475 0.0
3.871795415878296 0.38215625286102295 0.0
3.229135036468506 0.3810797333717346 0.0
0.28971707820892334 0.8759857416152954 0.0
0.9214505553245544 0.11992674320936203 0.0
1.9219478368759155 0.6237660050392151 0.0
1.530794620513916 0.29603153467178345 0.0
3.072223663330078 0.7044162750244141 0.0
3.6722235679626465 0.7044162750244141 0.0
[...]
POINT_DATA 715
SCALARS Psi double
LOOKUP_TABLE default
0.0
0.0
1.0
1.0
1.0
1.0
1.0
1.0
1.0
1.0
1.0
1.0
1.0
1.0
1.0
1.0
1.0
1.0
1.0
1.0
1.0
1.0
1.0
1.0
1.0
1.0
1.0
1.0
1.0
1.0
1.0
1.0
1.0
1.0
1.0
1.0
1.0
1.0
1.0
1.0
1.0
1.0
1.0
1.0
1.0
1.0
1.0
1.0
1.0
1.0
1.0
1.0
1.0
0.9193340700777501
0.865842689326722
0.7647589128820574
0.62827210733537
0.47058507650058834
0.3117950354834866
0.17339247197162372
0.07098907362494979
0.018675441594148745
0.0
0.0
0.0
0.0
0.0
0.0
0.0
0.0
0.0
0.0
0.0
0.0
0.0
0.0
0.0
0.0
0.0
0.0
0.0
0.0
0.0
0.0
0.0
0.0
0.0
0.0
0.0
0.0
0.0
0.0
0.0
0.0
0.0
0.0
0.0
0.0
0.0
0.0
0.0
0.0
0.0
0.0
-0.0
0.0
0.0
0.0
0.0
0.0
0.0
0.027349011202039964
0.1076948905711724
0.20923053387700874
0.3108739468390332
0.41246456191253045
0.5108191735932817
0.6026380445738166
0.678450900584333
0.6416408871958914
0.5300643549184482
0.5436035142445019
0.5008184010088071
0.4939845602671111
0.4695232907651619
0.47130754729742624
0.5093962300142781
0.3204062948744242
0.3070581133148964
0.7747513005529489
0.7664217527804885
0.22668283779654969
0.22287183524647963
0.24465234312120984
0.22711203597819074
0.25486216516431304
0.7932418252244319
0.7919077732302537
0.7891884679609092
0.7980114121800135
0.7598864535762742
0.7864804863038813
0.17597536115931794
0.8543326691825034
0.15684027924081542
0.1435962066217482
0.1385521779043754
0.8816111618010414
0.8776374601761769
0.8764284401497316
0.09090480003539782
0.12168414078436583
0.12247339638932254
0.13537854905856314
0.8699449306539303
0.8644190514643842
0.8695314760142419
0.7934738373636927
0.9003874904279849
0.11060194067044328
0.11127155234954571
0.0950926398779352
0.08191582369792796
0.46456878173776767
0.47948612198338697
0.5725926092831995
0.039818264398833174
0.06238161522892753
0.9299606874213303
0.06977852511303423
0.9267257747693327
0.9272875594267547
0.49545657018740447
0.07117599389407443
0.5149519497358839
0.5012920787780427
0.5068926099026014
0.5098780046409834
0.5015800102098524
0.48484931863147424
0.5069463260724502
0.49064197432199286
0.5124420558995388
0.5076352598406755
0.5190245371605059
0.05664814916826193
0.9537524576793824
0.9590472724966215
0.03656805492648841
0.9538453221275293
0.9594303235832861
0.9425961154290544
0.0279708889748578
0.9639144029899979
0.9568894719049496
0.03999089540333186
0.05171695230772012
0.040690041970181334
0.9655288923245284
0.9618088140485898
0.9586536871171146
0.5403859394892708
0.9786722081744016
0.9709322993579318
0.029517399364942454
0.7350956370056974
0.7344574356447576
0.24341248859779696
0.03679841522704045
0.5292903444851207
0.02887702934589436
0.7489616881753264
0.2507355188708588
0.25562136729684726
0.287002762311964
0.7180497712320237
0.7251020695228528
0.04369780447223131
0.2947971509235936
0.9645636088211954
0.7150563828892139
0.22665052795281693
0.3107604772013489
0.7438787760580878
0.9599157298450663
0.298612728574893
0.32231874314996645
0.5704642890145935
0.7547651126406405
0.03726399725899046
0.8225968112645429
0.02538514374437609
0.02680227965381313
0.024744990536956623
0.29263687293223084
0.025924962754217903
0.5837992930805405
0.7316856544192394
0.2747528981120024
0.2516457960908629
0.7338209371246049
0.7333731344797548
0.26871683834316085
0.3295008872592225
0.6675046368915089
0.6735348993784491
0.6743442252904535
0.7096614046640007
0.7866115611246978
0.9792011126767115
0.01753120672100088
0.001852514331880887
0.02126332684483059
0.001110067408077764
0.9816064431391287
0.9825634741760446
0.3224371927204456
0.9761147112637709
0.24963626879094336
0.334490544478314
0.9853720772089865
0.0194952187056447
0.9789660795742324
0.984957308837117
0.02287220837207146
0.9841733761891268
0.2719146900412639
0.9701279073081266
0.9805252238281862
0.26914562464974795
0.005702395394256555
0.006011479451933444
0.02259001641312265
0.9775681629702542
0.9812455686861469
0.6942341939403096
0.9922283071049988
0.19998822169762773
0.0030304669615676735
0.7057440021233299
0.2966126901512177
0.30251926196308276
1.0187569839347705
0.02183825618904195
0.7098840790976106
0.1811020559556792
0.8304986915524339
0.8194307121988725
0.8162339685699083
1.005750942648163
0.6891877075890519
0.004116046382224296
0.9948048018493368
0.9943979165641658
0.1550625309893321
0.32344975392873476
0.18176592726004281
0.9957608917105629
0.0036431873602624275
0.8692005415739177
0.29119889592274617
0.12750838321400723
0.34094481352086464
0.011410166586718154
0.16199704036407453
0.9905812875961524
0.9901142515558886
0.12470787007667175
0.18963043303390306
-0.0015307004830168826
0.4406530154619793
-0.003431896121253763
0.4047659571962436
0.19157806842140562
-0.003715579789546378
0.0007676456458312601
0.4097267721733995
0.4276609069804387
0.41454079737905886
0.5925449428946618
0.5911622337031108
0.003102630447240208
0.5523015544142972
0.0016092723903940165
0.6950176059317947
0.12771796682461709
0.6021286119639829
1.0011117901008266
0.8063949269997477
0.17323225904001363
0.8046083394962349
0.181880947019322
0.20015867819187394
0.8171796992594412
0.9983437269344132
0.0016156363329564894
0.13087769908996247
0.8665513696618397
0.13288938645531612
0.3305009685358361
0.6188957779350115
0.8286847648790195
0.10445937375786482
0.4082419365654218
0.4167201111690045
0.6116403270948341
0.5991226027612446
0.592819056599743
0.020349992958987737
0.6538770048211967
0.1374404414826297
0.8668550736116979
0.8630287780634155
0.595874941344132
0.4079466858233239
0.42348369099650773
0.003775591575990042
0.5897365984623164
0.8686883351954734
0.13299420163940132
1.0063287227444877
0.1937905256052427
0.5743172937869089
0.6579441377958444
0.4054382000456454
0.8629870578967388
0.5815310649752963
0.9992093107586116
0.45068809418937267
0.9884566207377863
0.9876467467730575
0.896502225526901
0.8673465990225722
0.9584968388914317
0.005896233776701838
0.42401623246195513
0.708693565782269
0.5768866659886497
0.6826778511447013
0.36609230623823846
0.10351164531312253
-0.0013924532654620001
0.43963519944812907
0.21144083619379547
0.8406634802495353
0.5648096413628246
0.4412375011618605
0.44706784706328295
0.8513435703973864
0.8765936534653498
0.13695196368030926
0.12171656262273842
0.869067362971483
0.4094251238346172
0.9990816360058492
0.14238010713547586
0.9058466771776893
0.906908078601518
0.35714189849325406
0.9178301675845062
1.0040493677981404
0.11300423385845364
0.1417331969038156
0.6774734879539612
0.32389032874690776
0.6790386217961298
0.6899949563153116
0.08416017738299227
0.6698042272488716
0.3344509467450996
0.33431244657797105
0.00650728028891459
0.47344033336977237
0.262394712034368
0.7393001278854405
0.7663105976698664
0.33922700123660243
0.8773658817074054
0.6677137402315927
0.6631073592393134
0.6361485552653114
0.007582392029157588
0.007442137237655573
0.12956282615505157
0.8242764101367015
-0.0030556589487657376
0.9160101007646149
0.9161288477982018
0.8486905583863047
-0.0033620430914997955
-0.002754390423465471
0.19014160707393402
0.34086721116678936
0.0002684068602174916
1.000429656505239
0.3369895984382865
0.8878240552279888
1.0001739284448692
0.8834755987575039
0.11891573743376144
1.005788669153432
-0.0014318693171488752
0.10206152451171015
0.9955164349271326
-0.0004360304088260708
0.31753014786248973
0.0005937068395878021
0.6918276989574997
0.003656154538311204
1.0019637175204865
1.0043985427850475
0.11139277903433925
0.49314595757097685
0.14979520542963937
0.9977728080013891
0.8865574183150959
0.9988944941682324
0.32734083095927113
0.9993695127429861
1.0027988216611625
0.13331389141930705
0.08764528065810775
7.442930262258974e-05
0.2790940697980313
0.6487560133746195
0.5856617849324904
0.4122439889541132
0.5632527294630127
1.004000675237017
0.2555404629808738
0.5715170338675734
0.9999249507393145
0.000356101201743768
-0.0013192206132183622
0.19363790075085843
0.4071584485260366
0.578291564056113
-0.0018074574687830596
0.9215718505591801
1.005185405996476
0.8847987891876729
0.09058420082968303
0.9149344907025051
0.9088252967583207
0.6342679857104543
0.07700262984117892
0.8963915567070386
-0.0018962719113638931
0.27829126352235906
0.0026231227755604894
0.9331347071237632
0.06660344087616132
-0.001474235364585547
0.5889168173661038
0.5399689401871915
1.0042323001105096
1.0154458943180997
1.0014800478283377
0.0013025116481347842
0.43342014529421574
0.6801521104714925
0.6879350098372627
0.6821711402323998
0.31906469700884305
0.31527061888373786
0.32994882364416245
0.9440418653085221
1.0353796912502942
0.9974018027043507
0.9947508216527672
0.9634724684965232
0.6847767261335344
0.7573170277763196
-0.001969222374094963
0.06494669290133406
0.7911716812703257
0.7066682257858392
0.2295501751465548
0.8726695102842001
0.08428576696462399
0.0753001496161465
0.7186795341128842
0.6210288023496927
0.43447440587504665
0.9980700161729097
1.0012048803200444
0.7745741316948386
0.1003559349073368
0.9313704895255065
0.21123630038098926
0.952489715304332
0.052939848806939256
1.000336912442114
0.0021539767716720853
0.3661906332319802
0.6129248091423909
0.3606408798629883
0.833292930944562
0.04132417364934923
0.5915139111888308
0.3755278277454378
0.8394369233631294
-0.0011531538672971229
-0.003505584977610363
0.18944933220215063
0.17397920270190712
0.056142023386550666
0.10361935141629594
0.9457113401944809
0.8419604323093406
0.1591515911130676
0.8016768145601675
0.20317932586301565
0.9068481143002681
0.9036816717079447
0.9033063995203604
-0.00462243340464271
0.9414231741901886
0.3587312931253458
0.21607854860883577
1.0004568579042725
0.16834662753689889
0.5588693901615474
0.7144489717774632
0.6113757538071757
0.6411199772370539
0.04318147997617876
0.9525813204705088
0.9517322437711686
0.05511596006509679
0.6962950461597857
-0.006146698600569594
1.0058210145544937
1.003657567241722
0.03711559266245285
0.04124006081692126
0.8951577662944437
0.25192097358359905
0.9483236757879441
0.45024603208957975
0.8603171965618063
-0.0003982649693474428
0.644659304586665
0.3548685199268897
0.3660194223380153
1.0011003563475438
-0.0020779125143772976
0.5573407668895769
-0.007555577493428322
0.41322353583645377
0.06739076283282901
-0.0011413503458546216
0.23463954746574678
0.6273385450263239
0.7203129047339419
0.7847735460090395
0.9501470191924232
0.04748553395411947
0.24067661698460385
0.1835957178777151
0.7698300660212767
1.0044554223589837
0.233131405254719
0.06803141968051682
0.1840887466627975
0.05319886778338055
0.930523354278959
0.04622471013355796
0.20942873621373712
0.7872711880022119
0.7918390201434948
0.8010657596929256
0.4076691593309345
1.0058770620525828
0.3695668873832453
0.9181629218061411
-0.0012151161748516948
0.0506571183696907
0.03953392460966066
0.5971464555500275
0.0698113062250586
0.0020968095377058367
0.05988053864379036
0.08157828266723768
0.412904242912027
0.561968010326002
0.029813480195756158
0.1933613666656599
-0.001822332714880863
1.0000652379804966
0.9189212619746591
0.4338325365022766
0.5708818930989421
0.6278013034991403
0.9393320227935993
0.05108949153931766
0.05010734011189503
0.9982438860317533
0.030238139164400143
0.5060822824897956
0.324801473310801
0.1187042223210237
-0.0008249555769514556
0.7918144114744518
0.9494508262566833
0.1442416926293563
0.12550366652127695
0.8545350076533607
1.001733624881877
0.04472085158052627
0.9438939984928769
0.9434073225562353
0.4442638149645105
0.44291102391152576
1.0007918089378198
0.214174755538288
0.33467734666671667
0.3742371387352915
0.0002619976136190048
0.9679068476653158
0.9687951698456939
0.24455612400311447
0.5977158216554922
0.8329783383177563
0.8354805835395143
0.18890053347952798
0.8310487136155686
0.23168085492190338
0.8825022906856952
0.881195378690474
0.6196905092093071
0.8947439136353362
0.6199727882409897
0.05103565839854881
0.950591280479921
0.39280918824932765
0.6235463472003724
0.3761605999432963
-0.007179409299516719
0.31269779067150233
0.056832064344635856
-0.0004788949922362428
0.5677097724982095
0.11519971763070087
0.22028285996811403
0.08609455509495136
0.8003049705606671
0.8744664179594958
0.9760464088432597
0.5856205665111908
0.0032580764251114317
0.40394815331122286
0.0777002795672564
0.9992062429997786
1.0002030989137238
-0.0009577687259553238
0.0579293259565476
0.9461812763513546
0.0004054812641282477
-0.004165940792073639
0.2332111810990501
0.7684455253234567
0.43686532857376464
1.0028139076934515
0.22276682317414764
0.8203192615683688
0.1976340957950589
0.8093006024858868
0.1905113983958557
0.978704666764878
0.0016233760761941837
0.40872791101498124
1.0008862089107065
0.9586617652238635
0.043196646938687536

SCALARS Omega double
LOOKUP_TABLE default
-7.676494663801948
-1.1821194813122944
8.57542580925577
15.920184534224123
36.51090626463676
-6.477768360480562
2.4232810874777817
-4.4647554786757535
-0.4278494108909929
1.9233564364095477
0.04810283817529081
-0.6371609734895856
0.4850745952491699
1.1458349278719329
0.23191118262253718
0.8260820443391454
0.5464870751982456
0.795454723535602
1.5550613652889076
-0.09003369695929184
1.4115909980660628
1.2426061938632629
-0.416755902026308
0.48786119378486986
1.0657680922438502
1.0379895511262824
0.7602776499280872
0.23921562868126978
0.4603933129173929
1.422125016890883
1.1090376385716179
0.1624721571728373
1.3308830791400992
0.8608457998156813
0.41602571221687284
1.117640783095711
0.7532420654259883
0.3779287265128986
1.311133199067371
0.675880308188437
1.379249911982821
0.6963282090645024
0.4334731909489289
0.35270639791268793
0.9430902407362479
0.7258121108043071
2.128822973220934
0.4653349891663944
-0.46805361258541783
2.1647395179612845
0.8724454482226546
1.8661841146286633
9.585274114909007
-7.826549830340323
0.5624122489645903
2.844239825270872
1.6267572486060413
-0.10330743572730926
-1.1386509902864326
-2.6254294404974807
-3.285376534974888
-1.563655117203448
-0.25459333496889497
-0.6553649234325996
-1.0585912819396206
-0.13092531793070367
-0.7055361408516317
-0.3794221078809869
-1.0649635649412352
-0.8159315652870737
-0.30964642471122533
-0.7184306761225768
-0.45765745904513344
0.09837491463047739
-1.766980957387969
-0.647871656147242
0.3881397725565895
-1.4951487173724645
-0.5996820302089346
-0.2976647492918779
-1.1123745769332236
-0.8088574134398749
-0.4249034420604915
-1.1067490268527227
-0.88938999368177
-1.4213631896862293
-0.16588579444152093
-0.5576657433152513
-0.9726631303162436
-1.0879240798744791
-0.7433511692080473
0.6915129868856471
-1.3986792976474511
-1.2277461380828636
0.2083278305823054
-0.852097595256229
-1.1185701391144212
-0.16244455462371263
-0.5573531487355495
-1.5265048329161197
-1.5310107679144445
-0.3935704375015922
-1.906309163751406
-0.48600606201117996
-2.07228479091923
-0.498828166294686
-0.13996693025752263
-2.0695202068565393
-1.910960267126671
-0.8190374471648816
0.751121492789905
-4.59270982731603
2.6458085188559304
0.3120413937115122
-0.02540657464932708
-0.8569637371346015
1.6497826892525767
-5.889253803137143
-2.3403788719023866
-42.60835480971465
-0.5124400516361104
0.5142224928047877
0.0995258260544217
-0.08843748264054195
-0.29762603894955647
-0.24849890235032068
0.13250180285625196
-0.37606501348992677
-1.9676324427200955
3.1278245498891257
2.8662252093969203
-2.9326697701002225
-2.9352203327407285
-2.6491705625195525
-2.8421055378289632
-2.045802036066129
3.132188131264308
3.1428805084821985
3.0941943546221564
3.131087589288684
2.317047347903331
3.140831325879357
-3.522156786499343
3.961371865823982
-2.5859254124214637
-4.150421432861728
-4.112809649305042
5.215825984892458
4.356763471679026
4.1649789777295085
-4.809816937159431
-4.422858979567245
-4.313450406178641
-4.099240198365671
4.302224917141069
4.108952857274381
4.347188614051447
1.9687728369494117
4.6331727624861685
-3.967429842301818
-1.702843449373528
-4.731424279725533
-5.074474403446706
-1.4216608526185186
-0.21542290599394373
0.7563543040299298
-6.280695880848672
-5.454262136275104
5.056763908737571
-5.1519594146061785
5.264929065008428
5.068483284334057
-1.2639652726333634
-4.899384017500294
0.2154265187282261
0.1337878512013419
0.10440534772476268
-0.17061219436294003
0.03597914456762297
-0.180036278662975
0.06377233102820318
-0.10653304013681257
0.15373991162280193
0.19346678179104237
0.2285040806164932
-5.616338921220559
5.386397512895855
7.3323764083928005
-5.7626176400238425
5.862424180591574
5.876405603633388
6.148961794482751
-5.356300032221189
5.642320243425601
5.255869971930329
-5.578151782087827
-5.47943651320246
-6.390112976318392
6.501990273678831
5.635778664791551
5.76498655811025
0.3699037900168671
13.251736406660926
5.602205006725067
-5.540100899546476
2.455465393999601
2.267115523749984
-2.6626140422959113
-5.438444908273363
-2.3409456237066397
-5.91257150394587
2.7059099111633276
-2.610508122077301
-2.535405991708481
-1.881172108969327
2.2287157958120924
2.376125295157731
-5.576418419705406
0.08633996138316892
6.050451496982765
2.000372926764134
-2.4969827802520226
-1.8989067730335274
2.538880034912027
5.625158505278534
-2.017719693533779
-1.2680356089290206
0.7408304042286583
2.671570910715346
-6.1100892479167115
-1.866352365771654
-6.147239181267764
-6.098149243751268
-6.27248075399747
-2.123388908386687
-6.157981506328539
-4.518024240093837
2.4869505144045343
-2.309485236923474
-2.611231304084613
2.563088372157849
2.473970742898548
-2.43437025012585
-1.5486659273002819
1.6820100952233878
1.7865613588262992
1.8035680073839815
2.180616123101574
3.065143184606246
5.705613282786158
-6.458212038259504
-7.463413503939616
-6.641357474888811
-8.33799239599902
6.246028042886928
6.8105807159581815
-1.7701700978913883
6.662393647934189
-0.9134872964108649
-1.006694815376884
6.555088730124812
-5.3257110627826245
7.943668174838558
6.00700449024616
-6.097201560230716
5.592366006301432
-2.3687527505719386
5.604488485375785
6.991695259770212
-2.3759663373978612
-8.301982530114074
-10.849669020165956
-8.805225472168923
6.539963029569742
5.748697761959664
-1.0357770608314727
7.100721770066103
-2.1676439873619158
-7.801051795623774
2.2328848703176973
-2.104053626594071
-2.017003027425813
23.702567721800612
-6.214302580475506
2.2145180219349636
-3.466919601310594
3.6784203006637517
3.4506450511432027
3.4480686516975596
7.464334971045338
1.6262455673208347
-8.218492257098623
8.309403001984554
6.807957113799739
-1.450231512324547
-1.7922857772738963
-3.5130126340300523
6.682411282651725
-6.607612689247036
4.154579137757649
-2.1612563137145133
-3.759869456540275
-0.44599032185502885
-6.237937841129274
3.28247969308004
7.442790944154934
5.574358587875768
-4.316594317960708
-3.401116211409423
-9.953419879774914
-0.5478464442398057
-8.008102043829808
-1.4071369008076098
-3.3035634327607797
-8.558684428501435
-7.7830794614542125
-0.9212003532204122
-0.6754413437018111
-0.8304474159065485
0.7755976130615408
1.0214706620230887
-7.143968920646165
1.4616842903940246
-9.053922591222236
2.030187133733309
-4.213148951759187
-4.132594581045465
9.463838584740442
3.3357273673056302
-3.113738915121885
3.330799241497408
-3.4553805657451324
-3.2445043799398583
3.472551580153084
6.706837007909582
-6.316552079332727
-4.266984127670178
4.157127987039863
-4.151025720203713
-1.284030838140442
1.1705881530687674
6.1422356431509595
-9.831272230930356
-0.7815052812857641
-0.7313679762999009
1.1445180530965318
1.0270041372274126
0.900832130936284
-6.701938170762649
-8.023482077222045
-3.9085537550449536
4.211418027490754
4.10149186526323
0.9913403311883743
-0.9272251829505005
-0.7214005315300858
-8.684940149145593
0.9894417816072032
4.409930871010296
-4.154676488498445
9.359379754506113
-3.3087054636126023
-0.4403107828392634
0.20486197705005568
-0.9598097992500687
4.00505878603431
0.2410458041605695
8.35623097496972
-0.4431739079648329
6.548588452829645
6.106702422141647
4.5480603067440395
5.499046265163917
2.6349129009792356
-7.499303079846507
-1.2884898850501953
2.1489925490210604
0.838252910455821
1.8856983741429705
-2.2378962278456958
-4.612603763435408
-10.004422600648606
-0.6319879630810199
0.7356086130282147
3.6976155099059147
0.7386395203563966
-0.5734728212632593
-0.4917708221726568
5.486139731110762
4.904040116435279
-4.080881431250909
-4.225443309740637
4.049724981162508