# vtk DataFile Version 1.0
2D Simulation C++
ASCII
DATASET UNSTRUCTURED_GRID
FIELD FieldData 1
NODES 1 2 int
715 1308

POINTS 715 double
0.0 0.0 0.0
5.0 0.0 0.0
5.0 1.0 0.0
0.0 1.0 0.0
0.10000000149011612 1.0 0.0
0.20000000298023224 1.0 0.0
0.30000001192092896 1.0 0.0
0.4000000059604645 1.0 0.0
0.5 1.0 0.0
0.6000000238418579 1.0 0.0
0.699999988079071 1.0 0.0
0.800000011920929 1.0 0.0
0.8999999761581421 1.0 0.0
1.0 1.0 0.0
1.100000023841858 1.0 0.0
1.2000000476837158 1.0 0.0
1.2999999523162842 1.0 0.0
1.399999976158142 1.0 0.0
1.5 1.0 0.0
1.600000023841858 1.0 0.0
1.7000000476837158 1.0 0.0
1.7999999523162842 1.0 0.0
1.899999976158142 1.0 0.0
2.0 1.0 0.0
2.0999999046325684 1.0 0.0
2.200000047683716 1.0 0.0
2.299999952316284 1.0 0.0
2.4000000953674316 1.0 0.0
2.5 1.0 0.0
2.5999999046325684 1.0 0.0
2.700000047683716 1.0 0.0
2.799999952316284 1.0 0.0
2.9000000953674316 1.0 0.0
3.0 1.0 0.0
3.0999999046325684 1.0 0.0
3.200000047683716 1.0 0.0
3.299999952316284 1.0 0.0
3.4000000953674316 1.0 0.0
3.5 1.0 0.0
3.5999999046325684 1.0 0.0
3.700000047683716 1.0 0.0
3.799999952316284 1.0 0.0
3.9000000953674316 1.0 0.0
4.0 1.0 0.0
4.099999904632568 1.0 0.0
4.199999809265137 1.0 0.0
4.300000190734863 1.0 0.0
4.400000095367432 1.0 0.0
4.5 1.0 0.0
4.599999904632568 1.0 0.0
4.699999809265137 1.0 0.0
4.800000190734863 1.0 0.0
4.900000095367432 1.0 0.0
5.0 0.8999999761581421 0.0
5.0 0.800000011920929 0.0
5.0 0.699999988079071 0.0
5.0 0.6000000238418579 0.0
5.0 0.5 0.0
5.0 0.4000000059604645 0.0
5.0 0.30000001192092896 0.0
5.0 0.20000000298023224 0.0
5.0 0.10000000149011612 0.0
4.900000095367432 0.0 0.0
4.800000190734863 0.0 0.0
4.699999809265137 0.0 0.0
4.599999904632568 0.0 0.0
4.5 0.0 0.0
4.400000095367432 0.0 0.0
4.300000190734863 0.0 0.0
4.199999809265137 0.0 0.0
4.099999904632568 0.0 0.0
4.0 0.0 0.0
3.9000000953674316 0.0 0.0
3.799999952316284 0.0 0.0
3.700000047683716 0.0 0.0
3.5999999046325684 0.0 0.0
3.5 0.0 0.0
3.4000000953674316 0.0 0.0
3.299999952316284 0.0 0.0
3.200000047683716 0.0 0.0
3.0999999046325684 0.0 0.0
3.0 0.0 0.0
2.9000000953674316 0.0 0.0
2.799999952316284 0.0 0.0
2.700000047683716 0.0 0.0
2.5999999046325684 0.0 0.0
2.5 0.0 0.0
2.4000000953674316 0.0 0.0
2.299999952316284 0.0 0.0
2.200000047683716 0.0 0.0
2.0999999046325684 0.0 0.0
2.0 0.0 0.0
1.899999976158142 0.0 0.0
1.7999999523162842 0.0 0.0
1.7000000476837158 0.0 0.0
1.600000023841858 0.0 0.0
1.5 0.0 0.0
1.399999976158142 0.0 0.0
1.2999999523162842 0.0 0.0
1.2000000476837158 0.0 0.0
1.100000023841858 0.0 0.0
1.0 0.0 0.0
0.8999999761581421 0.0 0.0
0.800000011920929 0.0 0.0
0.699999988079071 0.0 0.0
0.6000000238418579 0.0 0.0
0.5 0.0 0.0
0.4000000059604645 0.0 0.0
0.30000001192092896 0.0 0.0
0.20000000298023224 0.0 0.0
0.10000000149011612 0.0 0.0
0.0 0.10000000149011612 0.0
0.0 0.20000000298023224 0.0
0.0 0.30000001192092896 0.0
0.0 0.4000000059604645 0.0
0.0 0.5 0.0
0.0 0.6000000238418579 0.0
0.0 0.699999988079071 0.0
0.0 0.800000011920929 0.0
0.0 0.8999999761581421 0.0
0.7496038675308228 0.5164291858673096 0.0
1.3451675176620483 0.5190238952636719 0.0
1.9462687969207764 0.4963642954826355 0.0
4.456614971160889 0.5060901641845703 0.0
3.864220380783081 0.4866538345813751 0.0
3.249823808670044 0.482722669839859 0.0
2.6500000953674316 0.5 0.0
0.3810288906097412 0.399004191160202 0.0
2.308779239654541 0.3797946870326996 0.0
1.0499999523162842 0.6625000238418579 0.0
1.644740104675293 0.6598879098892212 0.0
4.150000095367432 0.3375000059604645 0.0
3.555316209793091 0.3343118131160736 0.0
2.9446933269500732 0.3401789665222168 0.0
1.6342840194702148 0.3290160894393921 0.0
1.0591840744018555 0.33908534049987793 0.0
2.9654481410980225 0.6753292679786682 0.0
3.5534629821777344 0.6835107207298279 0.0
4.153462886810303 0.6835107207298279 0.0
2.2139804363250732 0.6805098056793213 0.0
0.4914395809173584 0.6739721894264221 0.0
4.691666603088379 0.6916666626930237 0.0
4.691666603088379 0.3083333373069763 0.0
2.4872219562530518 0.7236665487289429 0.0
0.6240421533584595 0.2677222192287445 0.0
2.0697431564331055 0.2657754421234131 0.0
2.5389034748077393 0.26082900166511536 0.0
0.8147311806678772 0.7450684309005737 0.0
1.2897310256958008 0.743314266204834 0.0
1.8853894472122192 0.7450258731842041 0.0
4.382374286651611 0.23655959963798523 0.0
3.910269021987915 0.25668570399284363 0.0
3.1838724613189697 0.25397706031799316 0.0
1.398239254951477 0.2614254057407379 0.0
3.201760768890381 0.7385746240615845 0.0
3.8017609119415283 0.7385746240615845 0.0
4.39177942276001 0.7466779351234436 0.0
0.25301694869995117 0.7458874583244324 0.0
2.7258167266845703 0.7600342631340027 0.0
0.84163498878479 0.2263137847185135 0.0
0.22429518401622772 0.22429518401622772 0.0
2.7605957984924316 0.22504857182502747 0.0
1.8330284357070923 0.2150011658668518 0.0
0.2192869633436203 0.5323538780212402 0.0
4.7908525466918945 0.5038931369781494 0.0
2.466000556945801 0.5376454591751099 0.0
3.7061264514923096 0.17723728716373444 0.0
3.3929696083068848 0.20266839861869812 0.0
1.4905184507369995 0.7937026619911194 0.0
1.2104878425598145 0.20361483097076416 0.0
3.9895122051239014 0.7963851690292358 0.0
3.389512300491333 0.7963851690292358 0.0
0.5652223825454712 0.5070380568504333 0.0
0.44509074091911316 0.19716571271419525 0.0
2.1318352222442627 0.5042122602462769 0.0
1.548349142074585 0.4954715371131897 0.0
3.050636053085327 0.5004673004150391 0.0
0.9511125087738037 0.498258113861084 0.0
3.651650905609131 0.5045284628868103 0.0
4.248488903045654 0.4980509281158447 0.0
1.1537858247756958 0.49593159556388855 0.0
4.050199031829834 0.49993085861206055 0.0
3.464722156524658 0.509624183177948 0.0
1.749653697013855 0.5001751780509949 0.0
2.851828098297119 0.5057260394096375 0.0
2.359710216522217 0.1888567954301834 0.0
2.0499017238616943 0.8199846148490906 0.0
0.6430503129959106 0.8181284070014954 0.0
4.560274600982666 0.1724673956632614 0.0
4.55863094329834 0.8299665451049805 0.0
2.321284055709839 0.8242537379264832 0.0
4.815218925476074 0.8345447778701782 0.0
4.837246894836426 0.16590170562267303 0.0
0.9682294130325317 0.8331464529037476 0.0
1.730908751487732 0.827606201171875 0.0
4.220076560974121 0.17516615986824036 0.0
3.02066969871521 0.18326662480831146 0.0
1.5634372234344482 0.17044226825237274 0.0
3.035303831100464 0.8294908404350281 0.0
3.627507209777832 0.8360387086868286 0.0
4.2312469482421875 0.8315803408622742 0.0
4.618130683898926 0.5361976027488708 0.0
0.40311703085899353 0.8369210362434387 0.0
1.1473191976547241 0.8458209037780762 0.0
4.052680969238281 0.15417908132076263 0.0
2.020958423614502 0.6394158005714417 0.0
0.662188708782196 0.6447370648384094 0.0
4.5115838050842285 0.3538685142993927 0.0
1.0221220254898071 0.15309639275074005 0.0
0.3837882876396179 0.5515117049217224 0.0
3.548090934753418 0.15800617635250092 0.0
1.4348299503326416 0.6465393304824829 0.0
3.765170097351074 0.3534606993198395 0.0
3.3348300457000732 0.3534606993198395 0.0
1.2546738386154175 0.36384353041648865 0.0
3.945326089859009 0.636156439781189 0.0
3.3412928581237793 0.637225866317749 0.0
2.1904795169830322 0.17066854238510132 0.0
0.16392111778259277 0.38331863284111023 0.0
2.87723445892334 0.8265392184257507 0.0
4.8459792137146 0.6499902606010437 0.0
4.845625400543213 0.34837812185287476 0.0
2.771622896194458 0.38129922747612 0.0
4.5222978591918945 0.6578375697135925 0.0
2.604464530944824 0.8240283727645874 0.0
1.8544400930404663 0.3751189708709717 0.0
0.8566747903823853 0.38255012035369873 0.0
2.2932615280151367 0.5369129776954651 0.0
2.620572805404663 0.6496497392654419 0.0
0.7172287106513977 0.1490369737148285 0.0
0.1410960853099823 0.8303417563438416 0.0
1.7142322063446045 0.142862930893898 0.0
2.6314175128936768 0.14492936432361603 0.0
1.9832650423049927 0.1408119648694992 0.0
2.445650577545166 0.370038241147995 0.0
2.885042667388916 0.1455758661031723 0.0
0.13937503099441528 0.6546638011932373 0.0
0.9110832810401917 0.6349053978919983 0.0
3.088575839996338 0.3613528311252594 0.0
4.296638011932373 0.3563385307788849 0.0
1.1930090188980103 0.6355591416358948 0.0
1.788455843925476 0.6387236714363098 0.0
4.006990909576416 0.3644408583641052 0.0
1.4459187984466553 0.39242905378341675 0.0
4.354081153869629 0.6075709462165833 0.0
3.7540812492370605 0.6075709462165833 0.0
3.1591691970825195 0.6018876433372498 0.0
2.7615907192230225 0.6205627918243408 0.0
2.36276912689209 0.6735464930534363 0.0
1.3681535720825195 0.8630191683769226 0.0
3.8318464756011963 0.1369808316230774 0.0
3.275517463684082 0.10712132602930069 0.0
0.5630941987037659 0.12814241647720337 0.0
1.3237862586975098 0.10638008266687393 0.0
3.2733232975006104 0.8705052733421326 0.0
3.8733232021331787 0.8705052733421326 0.0
2.0396511554718018 0.38928428292274475 0.0
2.2168734073638916 0.8508136868476868 0.0
0.5163488388061523 0.3409615159034729 0.0
0.6547463536262512 0.3955095112323761 0.0
1.9480526447296143 0.8710126876831055 0.0
4.689375877380371 0.13700176775455475 0.0
4.698264122009277 0.8675068616867065 0.0
0.7578787803649902 0.8698469996452332 0.0
2.479548454284668 0.13692785799503326 0.0
2.4562506675720215 0.8735422492027283 0.0
2.171211004257202 0.3573116958141327 0.0
3.5117530822753906 0.853193998336792 0.0
4.107914924621582 0.8658969402313232 0.0
2.640726327896118 0.354434996843338 0.0
4.346996307373047 0.1279495507478714 0.0
0.3128283619880676 0.11246757209300995 0.0
0.136248379945755 0.12152919173240662 0.0
4.453908443450928 0.8629162907600403 0.0
1.6064813137054443 0.8679171800613403 0.0
0.3380795121192932 0.6626779437065125 0.0
0.5102446675300598 0.875635027885437 0.0
0.7425088882446289 0.2989330589771271 0.0
3.1349449157714844 0.10448489338159561 0.0
1.3287748098373413 0.6181886196136475 0.0
3.871795415878296 0.38215625286102295 0.0
3.229135036468506 0.3810797333717346 0.0
0.28971707820892334 0.8759857416152954 0.0
0.9214505553245544 0.11992674320936203 0.0
1.9219478368759155 0.6237660050392151 0.0
1.530794620513916 0.29603153467178345 0.0
3.072223663330078 0.7044162750244141 0.0
3.6722235679626465 0.7044162750244141 0.0
[...]
POINT_DATA 715
SCALARS Psi double
LOOKUP_TABLE default
0.0
0.0
1.0
1.0
1.0
1.0
1.0
1.0
1.0
1.0
1.0
1.0
1.0
1.0
1.0
1.0
1.0
1.0
1.0
1.0
1.0
1.0
1.0
1.0
1.0
1.0
1.0
1.0
1.0
1.0
1.0
1.0
1.0
1.0
1.0
1.0
1.0
1.0
1.0
1.0
1.0
1.0
1.0
1.0
1.0
1.0
1.0
1.0
1.0
1.0
1.0
1.0
1.0
0.9192009975405743
0.8653845586491222
0.7641323179632944
0.6279959485530321
0.47103331392280373
0.31290078836606194
0.17462568782430687
0.07178158799886102
0.018924273063710723
0.0
0.0
0.0
0.0
0.0
0.0
0.0
0.0
0.0
0.0
0.0
0.0
0.0
0.0
0.0
0.0
0.0
0.0
0.0
0.0
0.0
0.0
0.0
0.0
0.0
0.0
0.0
0.0
0.0
0.0
0.0
0.0
0.0
0.0
0.0
0.0
0.0
0.0
0.0
0.0
0.0
0.0
-0.0
0.0
0.0
0.0
0.0
0.0
0.0
0.02734895761738355
0.10769476663977924
0.20923032978092596
0.31087367658401704
0.4124642421041586
0.5108188178597575
0.6026376314909621
0.6784504206583932
0.6416406158544359
0.5300329183743407
0.5435206636835559
0.5008430659760317
0.49390701274944965
0.46892128577799236
0.47130490204955866
0.5103920313286706
0.32040437435814006
0.30824187098182304
0.7747039356204066
0.7659531966928395
0.22711899504313016
0.22300480191533747
0.24582536136044167
0.22744441233675888
0.25483806609602316
0.7930884393521077
0.790802902857562
0.7880791295480243
0.7975884884196137
0.7598762846441836
0.7856772902045513
0.17709763299376627
0.8542457111784565
0.15683325615906046
0.14438491251061503
0.13966477147934145
0.8815917949127862
0.8775637076046359
0.8759527645614047
0.09141647586044173
0.1219456123737835
0.12294621242788499
0.13546646368774798
0.869452789040862
0.8635053091677579
0.86879245117494
0.7934716748785953
0.9003615258893753
0.11058812181698424
0.11127153935356512
0.0959379821792613
0.08228531597423812
0.46456804242368477
0.4798729047851008
0.5731884053131644
0.039887127290389165
0.06252234278405504
0.9298556250755227
0.0697783396359963
0.9261519554083815
0.926809325337946
0.49544288489847926
0.07117563140825965
0.5151504730533758
0.501209829542084
0.5073265106731006
0.5098304243501761
0.5008470110910187
0.48454471461515813
0.5068942046319246
0.4900997681676489
0.5118550425789236
0.5075381036809034
0.5198406790963422
0.057113219141588505
0.9535613690650857
0.959044941753705
0.0368693292026124
0.953551802602915
0.9593366413789023
0.9422474992086819
0.028399896085007797
0.9639088611045091
0.9567681525967294
0.04017321282211208
0.05206544797275456
0.04075794813404108
0.965453447769394
0.9615246161215868
0.9583411526249903
0.5402798865894097
0.9786719373130356
0.970931063220724
0.02961826363480546
0.734508159578598
0.7344349208580078
0.24431804789865577
0.03679489049998994
0.5292860028416022
0.028920572500114938
0.7487200736755463
0.25081037999038786
0.25595389247918787
0.2870189213613505
0.7168368284631241
0.724258578245258
0.04403634305455953
0.29479691265083274
0.9645427040481074
0.7143215332212393
0.22807843287977075
0.3121974069090369
0.7430049470441603
0.9598949854847086
0.2991413278091402
0.32228708348240376
0.5707497580231661
0.7549020417725568
0.03726220474595
0.8225960436886542
0.02546707784723017
0.027078281349281027
0.024902244985684427
0.2940177671348135
0.026135347835894985
0.5837986954366859
0.7316438690979216
0.27558162106821243
0.2522188269501363
0.7337426993315069
0.7328076217138397
0.2689209334514865
0.3295929573732162
0.6666544505502633
0.67235810316639
0.6739922886220308
0.7099186973650041
0.7864454128096541
0.97921324240807
0.017557370433523487
0.0018290369043091497
0.021263701072079397
0.0011020891312748004
0.9815257619080745
0.982436072347909
0.32316900763189627
0.9760516593509874
0.24963103633332118
0.3344745513107531
0.9853500445796577
0.01965404837134171
0.9788345936444313
0.9849573869149101
0.02305957980308562
0.9841545343693356
0.27293807250815905
0.9699166921059335
0.9803651306494562
0.27064975129288965
0.0057075037925184745
0.0060117423926594575
0.022590005279545227
0.9774365321376755
0.9812488432413027
0.6942299145806229
0.9922298742519958
0.19997205642205537
0.0030200529752687564
0.7056036740735505
0.2966248767976525
0.3029813097037939
1.018757125438262
0.021836539561035793
0.7093145564438157
0.18131261953036376
0.8301628703176459
0.8183705773825756
0.8152758882880861
1.0057783837121979
0.6891537323440028
0.0041031759581646714
0.9947809478637548
0.9944086877002095
0.15506212899033806
0.32443595644403256
0.18248255336440886
0.995766021246636
0.0036333011938644915
0.8691114927162125
0.2918264171761266
0.12749160060983225
0.34094421688175114
0.011481424131323905
0.16199687322188608
0.9905915476178475
0.9901141707758397
0.1255847615975932
0.19012204936228175
-0.0015329636577961804
0.44183097597866766
-0.0034952623552696547
0.4047656425965153
0.192835498973006
-0.0037374553223990235
0.0007380652323122129
0.4096248428809657
0.4285927682331489
0.41417295936284
0.5924886299470825
0.5908854506684599
0.0030950982743842875
0.552317529211712
0.0015981459400323636
0.695251582678048
0.12883719194490037
0.6021271253151074
1.001156202946773
0.8052991012411721
0.17322778637225802
0.8036363967223065
0.18212621110837252
0.20028210574102048
0.8168412296997037
0.9983400171694503
0.0015862518999853372
0.13109104277352746
0.8664099391158477
0.13326582633368195
0.33046507774611095
0.6184947085641154
0.8278566736038061
0.10573648183691108
0.40834937397160076
0.41667827507399047
0.6119372153940226
0.5981613490399916
0.5919934247501636
0.02034737404916447
0.6538765201438097
0.13748106858962558
0.866207280272665
0.8620829907393963
0.5957928914704946
0.40764859180798674
0.4239056555538773
0.003723415651731264
0.589407371840616
0.8686518437280022
0.13339837175058963
1.0063696349994071
0.1950209535008875
0.5742944329818627
0.6579277196686462
0.40590644415517246
0.8624767796555431
0.5814887996488769
0.9992551654313757
0.45156018591756397
0.9883816042149051
0.9875842803651947
0.8962146992614113
0.8673314567046934
0.9584251998237694
0.006020883464205992
0.42401072420417
0.7088609104705654
0.5767226860572031
0.6822896630866728
0.36716941241498996
0.10426163016095139
-0.0013922281130984333
0.43967659257739095
0.2114405995416431
0.8401485247825641
0.564675060982771
0.4407057990440327
0.4468956595254934
0.8513319112767976
0.8765704535550745
0.13760605305294166
0.12225279952695386
0.8686048870930339
0.41021934241242675
0.9991063268750635
0.14237666883702385
0.9051889058522267
0.9062429151488625
0.3584308016376624
0.9177061320131783
1.004052275314057
0.11370484517077203
0.14263640388921026
0.6765102216226543
0.3240526608281142
0.6778605629143145
0.6898381252508354
0.08439670934214973
0.6694924412512083
0.33427940626620806
0.3343046622596762
0.00650738097623956
0.474542567748685
0.2624644838118791
0.7380725532130548
0.7656666562587612
0.33954745676960446
0.8773198936686344
0.6667220881730224
0.6620176381665337
0.6354658949080975
0.007624624364677678
0.007440930868202
0.1306754621867215
0.8234809414717631
-0.0030615401351570216
0.9160062112378776
0.9158992375303644
0.8479353678925592
-0.0033896521949619506
-0.002794696800934654
0.19014002037533087
0.34143695747059505
0.0001939017370797839
1.0004366806531406
0.3369652957793415
0.8871581404185682
1.0001958765859262
0.883452270024841
0.11935427960925833
1.0058065289645777
-0.001508004948237204
0.10290883744139029
0.9954876444746433
-0.00047429311906329046
0.3175169663832762
0.000595274330192133
0.6911166219647309
0.00366898699028143
1.0020069360539827
1.004434500269958
0.1115601665468996
0.49314559220687926
0.15071228679100715
0.9978060755938785
0.8864005793207546
0.9988932988470702
0.32843676344490524
0.9993667848331145
1.0027994172739423
0.13329999652116126
0.0877885532010622
6.462776923593835e-05
0.2800727698694831
0.6489166532788698
0.585651981200308
0.41222728934064995
0.5623659461614499
1.0040048696389865
0.2555402171551414
0.5711615759362535
0.9999259478473117
0.00033531957846982087
-0.0013433221453042854
0.19361387231356067
0.4071563344052841
0.5789950775708809
-0.0018334842033224806
0.9210267173697435
1.0052197550791933
0.8847962146650596
0.09069475644994966
0.91465103827495
0.9081458033426353
0.6347933611823114
0.0776265952826582
0.8958135426174344
-0.0018925255132956618
0.2798168642566742
0.0026108831265772357
0.9331146770395105
0.0668064564410388
-0.001488840484757186
0.588381607364339
0.5399668443441592
1.0042590047082123
1.015446171183809
1.001513427317809
0.0012913023542386651
0.43358527278575937
0.6801022819952989
0.687870136422898
0.681697556205033
0.3193707620853484
0.3154417881168346
0.33091770121831204
0.9439844115468868
1.0353799836602295
0.9974015909393594
0.994719659650148
0.9634683769607696
0.6847694854875529
0.7572959445938968
-0.002019105920184121
0.06494487204935016
0.7912462249345565
0.7059986826437118
0.23098952753760568
0.8726693365948193
0.08498237189227927
0.07557488014868366
0.7185078491473618
0.6199441607562088
0.43443963587679324
0.9981006208642099
1.0012430166021997
0.7736447772053872
0.10034629661995054
0.9311145919487265
0.21264494700871112
0.9524727622575986
0.05345101072328759
1.000360188239425
0.0021544718817692234
0.3669215563634559
0.6126059148669449
0.3620800782799155
0.8332876199829901
0.04159628855347909
0.5915436390456904
0.3755274333192022
0.8389616719772486
-0.0011774864685129777
-0.0035579849470641985
0.18944917923286647
0.1748840887281159
0.05624572113636827
0.10421979640186724
0.9457027947315665
0.8418965777953333
0.1594703483545061
0.8016395551924076
0.2037138175781212
0.9068470498876002
0.9029743924127573
0.9026552810083841
-0.004669883868692984
0.9412022507958248
0.35872120795146323
0.21691125400165587
1.000497278479574
0.16893559044020046
0.5587793843167239
0.713757095511031
0.6106039145857207
0.6410913766703779
0.04320104017896696
0.9523580989863749
0.9513440000189141
0.055660487387474575
0.6962938907468939
-0.006158011159259941
1.005889974524578
1.0037097505719441
0.037255233179635756
0.04191674370686556
0.8947447867569506
0.2519117474755113
0.9480051283898855
0.4506954795014801
0.8600573309790133
-0.0003983004029195721
0.6445005595648843
0.35465332391338544
0.3662055609707433
1.001115247474558
-0.0020979643008399167
0.5573404117306795
-0.007555280344121653
0.41323232450528
0.06738445184263823
-0.0011409447697993203
0.235313355485769
0.6269659758862884
0.7203123719506636
0.7841502194897685
0.9501305829104268
0.04761065910654334
0.24161828942514166
0.18428363457257935
0.7697956316063084
1.0045075796643586
0.23311802664145817
0.06850946309998134
0.18488483894037244
0.05359312703794252
0.9303769893990982
0.04646102469153585
0.20957441693105652
0.7863010897849783
0.7906879163480328
0.8005834437774573
0.4076300206023453
1.0058799216052845
0.37004399466787197
0.9178209874906108
-0.0012452988568685728
0.050922825557966435
0.039928002529741324
0.5977626625964613
0.07020051958856864
0.0020971259464471876
0.05988045076778971
0.08157836459441299
0.4140862444973662
0.5615070284657763
0.030081864513852318
0.1946561820990618
-0.0018223189820747562
1.0000930605006597
0.9189097461230319
0.4338391827713582
0.5699231067463983
0.6273505442667585
0.9392761585873067
0.05118948627552583
0.05024624736117525
0.998245140917399
0.030358210048845185
0.5060817362635578
0.3260534654763332
0.11869644393371732
-0.0008657200901259509
0.7918468375362678
0.9494486485124364
0.1445359398940321
0.12568048627456693
0.8543180262839865
1.001738209506874
0.04472538652912616
0.9435706260808046
0.9429635386667973
0.44459066594392344
0.44289015018286665
1.0008200045571183
0.21415265673791756
0.3346770616723588
0.37444354735379587
0.00026568328814763814
0.9676529981203726
0.9685808577774873
0.24455537786663387
0.5966712607885968
0.8319621664584023
0.834689545942461
0.18891328443942373
0.8310415064928961
0.23282660584969653
0.8816985864209727
0.8804184262649957
0.6196440642566997
0.8945292669105064
0.619596528880859
0.051241817961101374
0.9505832909719613
0.3934757899062484
0.6234754300738423
0.3760388825522263
-0.0072614861663656315
0.3126936652420164
0.0568315021611504
-0.0005122538261695716
0.5671561914522739
0.11540942560562173
0.22025707895781713
0.08609449929434113
0.8002788577228659
0.8744416181323432
0.976041192373262
0.5856374912807704
0.0032582399780884674
0.40452747750488527
0.07768918293888398
0.9992256904607585
1.0002256289137366
-0.0009876232987821715
0.05792948896530828
0.9458297293661326
0.0003933474219367528
-0.004254952107224293
0.23343444801368687
0.768340236605145
0.4368641609594723
1.002859212990625
0.22400852488546147
0.819716469753807
0.19814090988271701
0.8091610545015292
0.19072835414783057
0.9787143109860825
0.0016396159241150537
0.41005744440966146
1.0008876313300537
0.9585955444465271
0.04351782699065468

SCALARS Omega double
LOOKUP_TABLE default
-7.676487830800487
-1.1873736569051243
8.566677290842723
15.920214259026396
36.5110075046723
-6.477724018040235
2.423296257639745
-4.465103935932998
-0.42803093540830767
1.9230300649877825
0.047628267580014365
-0.6379132911853556
0.48533298600961305
1.1454649859323105
0.2308841453895674
0.8260396923155321
0.5399806762289248
0.7936873547980141
1.549668334979892
-0.09580509342147701
1.4068132739375263
1.2417777274134991
-0.4320400950499233
0.4880812426095924
1.0679911655427288
1.041717599406917
0.7575615800553039
0.24124219995639964
0.459380031032825
1.4223198246250817
1.1085872515680668
0.1585311294636372
1.3306284614090211
0.8568853436459061
0.41580243746188544
1.1217478368528695
0.7529742417287639
0.37849691420894116
1.3186549405878323
0.6783293970322357
1.3885601799712066
0.7016302856766194
0.4325802264026774
0.3545567912411864
0.948682839184346
0.7298620627672684
2.145939631055799
0.4669073624141925
-0.47850915563641555
2.178645163601644
0.8800147118619408
1.8787674453648402
9.593643755128587
-7.796702956750053
0.5455117006720412
2.803057130983098
1.602730281651387
-0.09852759192732351
-1.0983430856402872
-2.5855830158221895
-3.2535627192686007
-1.5913492225281862
-0.26245615962323043
-0.6687525072328343
-1.0690925337289368
-0.12463331593018889
-0.7130757426830947
-0.37748028589939275
-1.067682904676723
-0.8164527802845315
-0.30776089621136155
-0.7165997821943038
-0.4565832043438909
0.10436663329611241
-1.770403163959865
-0.6459883860863319
0.39156644556851433
-1.499760902572621
-0.5999939943529297
-0.29350682723402943
-1.1212236088943126
-0.8128470134533252
-0.4264953319535907
-1.115627958605131
-0.8969104509503653
-1.4349704524058664
-0.15768753027674445
-0.5559397674168118
-0.982637033109314
-1.0993388132127278
-0.7455838019998773
0.7001469045538443
-1.4060836622197612
-1.2330173022774353
0.21588107387577504
-0.8533305898067443
-1.117539724016581
-0.1589666791980986
-0.5552936570019366
-1.5258576563990673
-1.530819194937445
-0.3933534131823689
-1.906400872803969
-0.48622073632099655
-2.072388453293736
-0.4989663359542344
-0.1401810103090028
-2.0695363653827465
-1.91099650323986
-0.8190332919732689
0.7511177821839036
-4.592714943736831
2.645806930894941
0.3120379473684857
-0.02541755055912809
-0.8569632087303022
1.649763517578882
-5.889223761148068
-2.3403057892538164
-42.608406056194084
-0.5129990860193117
0.5119113017646496
0.09146584318633841
-0.09107304416961937
-0.30624584107737907
-0.24089459558254345
0.15379685557037978
-0.37583089611105736
-1.9004507468677716
3.126317827875221
2.8237463392482747
-2.8771811094388267
-2.895591181358665
-2.5774063360445716
-2.8108485586770176
-2.0462309935957554
3.0918872456094246
3.0744044538330066
3.0203571772753675
3.0753625900598265
2.316423028175452
3.072781699308706
-3.4489121376942573
3.9346897726259367
-2.5859410602177997
-4.0993393573811865
-4.061312120735881
5.21538773134574
4.356347347397992
4.129447623892869
-4.779118318875626
-4.387221772466094
-4.288105022462894
-4.092296210930068
4.267184450084985
4.068302324069233
4.305400727393089
1.9685536274872495
4.616284004481293
-3.9678082946536875
-1.7028249649834861
-4.706893694352705
-5.056560503712798
-1.4215299951230933
-0.20463697163397893
0.749003066929033
-6.285394070203985
-5.455125781547086
5.061363306598889
-5.153958470479519
5.265131622208473
5.063049572151024
-1.263804459583529
-4.899195086885841
0.20448739571306898
0.13305376767261118
0.11691976718071845
-0.1719423107351495
0.01644305686720415
-0.1838814168295312
0.06247433246335711
-0.11803588153889222
0.13520519944252551
0.18681641705116042
0.24579835748758158
-5.631269441325394
5.400811797061819
7.333534407103077
-5.788344958204162
5.882635854930058
5.8868984369192505
6.152454474859796
-5.398701982441537
5.644748902408651
5.279093823671848
-5.592396714269151
-5.494391623639992
-6.400150329748928
6.515543356409694
5.668473657905282
5.789392294063124
0.34894262578415824
13.252395460096588
5.608255376617053
-5.558933851963519
2.389532414147146
2.266088031254711
-2.585102806333806
-5.4380164025318
-2.3406651775878826
-5.924178612284676
2.6886437665819574
-2.568752091280442
-2.4924726612899724
-1.8776591351749203
2.1543494479768723
2.3143292212888316
-5.593988510397702
0.08635491593637233
6.0588349950081515
1.9302715512237312
-2.410955877859415
-1.8224919398332742
2.4597529934633156
5.626800648475813
-1.9720825637225299
-1.2685984352388622
0.7185431481441432
2.636432981364268
-6.109090242280481
-1.8665721347609323
-6.168633357041732
-6.144623449167012
-6.30944640400999
-2.0450114140493296
-6.206739466326915
-4.517889440861603
2.4852715980462885
-2.254756674831814
-2.54914687384539
2.5600258070471607
2.4225806460518258
-2.3850524368917685
-1.5371914527030555
1.6167800028049566
1.7212450325231772
1.76179568017827
2.1518251084544846
3.0236900330316763
5.723239562562302
-6.480101169070436
-7.498595824691917
-6.640820815626624
-8.344004954145241
6.286231285312923
6.867846044291343
-1.7156536307890131
6.6863301715456736
-0.9133008152047188
-1.0065230846470108
6.601463960895233
-5.3764039071893555
7.990804053001089
6.008635163913976
-6.159122012055081
5.601853712742721
-2.297375768167643
5.641461171005633
7.043636999841484
-2.288111387310735
-8.360878315755356
-10.84959515629091
-8.805216100769645
6.588819296805518
5.781717212835886
-1.035953865901945
7.101848119051807
-2.167921770662056
-7.855312707395146
2.225574840468481
-2.065147885747534
-1.975611129161503
23.70300681621583
-6.213275800574063
2.158222888620157
-3.447717060950448
3.637764544523864
3.389806399411989
3.3808489290878008
7.475321614820109
1.624961200715424
-8.235871197097712
8.384444631447783
6.847136760755095
-1.4501637902135285
-1.721177538514459
-3.45465250142082
6.683526529149709
-6.638186371400875
4.1275536538717335
-2.0984085860749615
-3.7607319449558805
-0.4458631604413081
-6.2882296645649705
3.282470120283458
7.4911221451224295
5.575988344326211
-4.267666003221994
-3.3577943387182456
-9.953312188551756
-0.5059990762695005
-8.10594850055558
-1.4071118620104133
-3.230498317048149
-8.581975360511022
-7.811723331348275
-0.9015843424356691
-0.6326865458741743
-0.8239555045643819
0.7736567026408842
1.001849497898633
-7.213298800970501
1.4295531605268346
-9.115095496595375
2.0006132336684708
-4.163028039866262
-4.132444769712211
9.551778636043599
3.270043649407123
-3.1133852205033854
3.2692870168834047
-3.4174091153928625
-3.2047957906426396
3.443163593076314
6.704341186181046
-6.3604504765251235
-4.231786926606857
4.149561736632202
-4.122083634451187
-1.2848204580006581
1.120914728143338
6.012188639183649
-9.68683547892518
-0.7675535807472794
-0.7322794695615225
1.1296480639931874
0.9816870604411736
0.8556377153519162
-6.701457793667754
-8.023338083273204
-3.905505420021205
4.169190772304603
4.055541593968159
0.9883148859910894
-0.9134817073297797
-0.6928034900632758
-8.792437115724244
0.9567959405172489
4.4105560466409734
-4.109307030906997
9.386509681290816
-3.23111782656226
-0.4407480727315748
0.20428639769899448
-0.9224709128154478
3.962738827583168
0.23981488959591574
8.38307101878563
-0.41638475988371054
6.613586223473964
6.1560972749501035
4.533362652192533
5.49846473878249
2.7219739957725335
-7.599800363342584
-1.2880883942940717
2.1147898531622955
0.8035571200379868
1.8257757956180558
-2.1342929412292184
-4.587797125197306
-10.004399199748935
-0.6155335866637753
0.7356499528627464
3.6469986951430697
0.7327751393373185
-0.5755235341000419
-0.4847950636897575
5.48555058747974
4.90385968269976
-4.048143789677533
-4.1774838577088795
4.015952061050504