# vtk DataFile Version 1.0
2D Simulation C++
ASCII
DATASET UNSTRUCTURED_GRID
FIELD FieldData 1
NODES 1 2 int
715 1308

POINTS 715 double
0.0 0.0 0.0
5.0 0.0 0.0
5.0 1.0 0.0
0.0 1.0 0.0
0.10000000149011612 1.0 0.0
0.20000000298023224 1.0 0.0
0.30000001192092896 1.0 0.0
0.4000000059604645 1.0 0.0
0.5 1.0 0.0
0.6000000238418579 1.0 0.0
0.699999988079071 1.0 0.0
0.800000011920929 1.0 0.0
0.8999999761581421 1.0 0.0
1.0 1.0 0.0
1.100000023841858 1.0 0.0
1.2000000476837158 1.0 0.0
1.2999999523162842 1.0 0.0
1.399999976158142 1.0 0.0
1.5 1.0 0.0
1.600000023841858 1.0 0.0
1.7000000476837158 1.0 0.0
1.7999999523162842 1.0 0.0
1.899999976158142 1.0 0.0
2.0 1.0 0.0
2.0999999046325684 1.0 0.0
2.200000047683716 1.0 0.0
2.299999952316284 1.0 0.0
2.4000000953674316 1.0 0.0
2.5 1.0 0.0
2.5999999046325684 1.0 0.0
2.700000047683716 1.0 0.0
2.799999952316284 1.0 0.0
2.9000000953674316 1.0 0.0
3.0 1.0 0.0
3.0999999046325684 1.0 0.0
3.200000047683716 1.0 0.0
3.299999952316284 1.0 0.0
3.4000000953674316 1.0 0.0
3.5 1.0 0.0
3.5999999046325684 1.0 0.0
3.700000047683716 1.0 0.0
3.799999952316284 1.0 0.0
3.9000000953674316 1.0 0.0
4.0 1.0 0.0
4.099999904632568 1.0 0.0
4.199999809265137 1.0 0.0
4.300000190734863 1.0 0.0
4.400000095367432 1.0 0.0
4.5 1.0 0.0
4.599999904632568 1.0 0.0
4.699999809265137 1.0 0.0
4.800000190734863 1.0 0.0
4.900000095367432 1.0 0.0
5.0 0.8999999761581421 0.0
5.0 0.800000011920929 0.0
5.0 0.699999988079071 0.0
5.0 0.6000000238418579 0.0
5.0 0.5 0.0
5.0 0.4000000059604645 0.0
5.0 0.30000001192092896 0.0
5.0 0.20000000298023224 0.0
5.0 0.10000000149011612 0.0
4.900000095367432 0.0 0.0
4.800000190734863 0.0 0.0
4.699999809265137 0.0 0.0
4.599999904632568 0.0 0.0
4.5 0.0 0.0
4.400000095367432 0.0 0.0
4.300000190734863 0.0 0.0
4.199999809265137 0.0 0.0
4.099999904632568 0.0 0.0
4.0 0.0 0.0
3.9000000953674316 0.0 0.0
3.799999952316284 0.0 0.0
3.700000047683716 0.0 0.0
3.5999999046325684 0.0 0.0
3.5 0.0 0.0
3.4000000953674316 0.0 0.0
3.299999952316284 0.0 0.0
3.200000047683716 0.0 0.0
3.0999999046325684 0.0 0.0
3.0 0.0 0.0
2.9000000953674316 0.0 0.0
2.799999952316284 0.0 0.0
2.700000047683716 0.0 0.0
2.5999999046325684 0.0 0.0
2.5 0.0 0.0
2.4000000953674316 0.0 0.0
2.299999952316284 0.0 0.0
2.200000047683716 0.0 0.0
2.0999999046325684 0.0 0.0
2.0 0.0 0.0
1.899999976158142 0.0 0.0
1.7999999523162842 0.0 0.0
1.7000000476837158 0.0 0.0
1.600000023841858 0.0 0.0
1.5 0.0 0.0
1.399999976158142 0.0 0.0
1.2999999523162842 0.0 0.0
1.2000000476837158 0.0 0.0
1.100000023841858 0.0 0.0
1.0 0.0 0.0
0.8999999761581421 0.0 0.0
0.800000011920929 0.0 0.0
0.699999988079071 0.0 0.0
0.6000000238418579 0.0 0.0
0.5 0.0 0.0
0.4000000059604645 0.0 0.0
0.30000001192092896 0.0 0.0
0.20000000298023224 0.0 0.0
0.10000000149011612 0.0 0.0
0.0 0.10000000149011612 0.0
0.0 0.20000000298023224 0.0
0.0 0.30000001192092896 0.0
0.0 0.4000000059604645 0.0
0.0 0.5 0.0
0.0 0.6000000238418579 0.0
0.0 0.699999988079071 0.0
0.0 0.800000011920929 0.0
0.0 0.8999999761581421 0.0
0.7496038675308228 0.5164291858673096 0.0
1.3451675176620483 0.5190238952636719 0.0
1.9462687969207764 0.4963642954826355 0.0
4.456614971160889 0.5060901641845703 0.0
3.864220380783081 0.4866538345813751 0.0
3.249823808670044 0.482722669839859 0.0
2.6500000953674316 0.5 0.0
0.3810288906097412 0.399004191160202 0.0
2.308779239654541 0.3797946870326996 0.0
1.0499999523162842 0.6625000238418579 0.0
1.644740104675293 0.6598879098892212 0.0
4.150000095367432 0.3375000059604645 0.0
3.555316209793091 0.3343118131160736 0.0
2.9446933269500732 0.3401789665222168 0.0
1.6342840194702148 0.3290160894393921 0.0
1.0591840744018555 0.33908534049987793 0.0
2.9654481410980225 0.6753292679786682 0.0
3.5534629821777344 0.6835107207298279 0.0
4.153462886810303 0.6835107207298279 0.0
2.2139804363250732 0.6805098056793213 0.0
0.4914395809173584 0.6739721894264221 0.0
4.691666603088379 0.6916666626930237 0.0
4.691666603088379 0.3083333373069763 0.0
2.4872219562530518 0.7236665487289429 0.0
0.6240421533584595 0.2677222192287445 0.0
2.0697431564331055 0.2657754421234131 0.0
2.5389034748077393 0.26082900166511536 0.0
0.8147311806678772 0.7450684309005737 0.0
1.2897310256958008 0.743314266204834 0.0
1.8853894472122192 0.7450258731842041 0.0
4.382374286651611 0.23655959963798523 0.0
3.910269021987915 0.25668570399284363 0.0
3.1838724613189697 0.25397706031799316 0.0
1.398239254951477 0.2614254057407379 0.0
3.201760768890381 0.7385746240615845 0.0
3.8017609119415283 0.7385746240615845 0.0
4.39177942276001 0.7466779351234436 0.0
0.25301694869995117 0.7458874583244324 0.0
2.7258167266845703 0.7600342631340027 0.0
0.84163498878479 0.2263137847185135 0.0
0.22429518401622772 0.22429518401622772 0.0
2.7605957984924316 0.22504857182502747 0.0
1.8330284357070923 0.2150011658668518 0.0
0.2192869633436203 0.5323538780212402 0.0
4.7908525466918945 0.5038931369781494 0.0
2.466000556945801 0.5376454591751099 0.0
3.7061264514923096 0.17723728716373444 0.0
3.3929696083068848 0.20266839861869812 0.0
1.4905184507369995 0.7937026619911194 0.0
1.2104878425598145 0.20361483097076416 0.0
3.9895122051239014 0.7963851690292358 0.0
3.389512300491333 0.7963851690292358 0.0
0.5652223825454712 0.5070380568504333 0.0
0.44509074091911316 0.19716571271419525 0.0
2.1318352222442627 0.5042122602462769 0.0
1.548349142074585 0.4954715371131897 0.0
3.050636053085327 0.5004673004150391 0.0
0.9511125087738037 0.498258113861084 0.0
3.651650905609131 0.5045284628868103 0.0
4.248488903045654 0.4980509281158447 0.0
1.1537858247756958 0.49593159556388855 0.0
4.050199031829834 0.49993085861206055 0.0
3.464722156524658 0.509624183177948 0.0
1.749653697013855 0.5001751780509949 0.0
2.851828098297119 0.5057260394096375 0.0
2.359710216522217 0.1888567954301834 0.0
2.0499017238616943 0.8199846148490906 0.0
0.6430503129959106 0.8181284070014954 0.0
4.560274600982666 0.1724673956632614 0.0
4.55863094329834 0.8299665451049805 0.0
2.321284055709839 0.8242537379264832 0.0
4.815218925476074 0.8345447778701782 0.0
4.837246894836426 0.16590170562267303 0.0
0.9682294130325317 0.8331464529037476 0.0
1.730908751487732 0.827606201171875 0.0
4.220076560974121 0.17516615986824036 0.0
3.02066969871521 0.18326662480831146 0.0
1.5634372234344482 0.17044226825237274 0.0
3.035303831100464 0.8294908404350281 0.0
3.627507209777832 0.8360387086868286 0.0
4.2312469482421875 0.8315803408622742 0.0
4.618130683898926 0.5361976027488708 0.0
0.40311703085899353 0.8369210362434387 0.0
1.1473191976547241 0.8458209037780762 0.0
4.052680969238281 0.15417908132076263 0.0
2.020958423614502 0.6394158005714417 0.0
0.662188708782196 0.6447370648384094 0.0
4.5115838050842285 0.3538685142993927 0.0
1.0221220254898071 0.15309639275074005 0.0
0.3837882876396179 0.5515117049217224 0.0
3.548090934753418 0.15800617635250092 0.0
1.4348299503326416 0.6465393304824829 0.0
3.765170097351074 0.3534606993198395 0.0
3.3348300457000732 0.3534606993198395 0.0
1.2546738386154175 0.36384353041648865 0.0
3.945326089859009 0.636156439781189 0.0
3.3412928581237793 0.637225866317749 0.0
2.1904795169830322 0.17066854238510132 0.0
0.16392111778259277 0.38331863284111023 0.0
2.87723445892334 0.8265392184257507 0.0
4.8459792137146 0.6499902606010437 0.0
4.845625400543213 0.34837812185287476 0.0
2.771622896194458 0.38129922747612 0.0
4.5222978591918945 0.6578375697135925 0.0
2.604464530944824 0.8240283727645874 0.0
1.8544400930404663 0.3751189708709717 0.0
0.8566747903823853 0.38255012035369873 0.0
2.2932615280151367 0.5369129776954651 0.0
2.620572805404663 0.6496497392654419 0.0
0.7172287106513977 0.1490369737148285 0.0
0.1410960853099823 0.8303417563438416 0.0
1.7142322063446045 0.142862930893898 0.0
2.6314175128936768 0.14492936432361603 0.0
1.9832650423049927 0.1408119648694992 0.0
2.445650577545166 0.370038241147995 0.0
2.885042667388916 0.1455758661031723 0.0
0.13937503099441528 0.6546638011932373 0.0
0.9110832810401917 0.6349053978919983 0.0
3.088575839996338 0.3613528311252594 0.0
4.296638011932373 0.3563385307788849 0.0
1.1930090188980103 0.6355591416358948 0.0
1.788455843925476 0.6387236714363098 0.0
4.006990909576416 0.3644408583641052 0.0
1.4459187984466553 0.39242905378341675 0.0
4.354081153869629 0.6075709462165833 0.0
3.7540812492370605 0.6075709462165833 0.0
3.1591691970825195 0.6018876433372498 0.0
2.7615907192230225 0.6205627918243408 0.0
2.36276912689209 0.6735464930534363 0.0
1.3681535720825195 0.8630191683769226 0.0
3.8318464756011963 0.1369808316230774 0.0
3.275517463684082 0.10712132602930069 0.0
0.5630941987037659 0.12814241647720337 0.0
1.3237862586975098 0.10638008266687393 0.0
3.2733232975006104 0.8705052733421326 0.0
3.8733232021331787 0.8705052733421326 0.0
2.0396511554718018 0.38928428292274475 0.0
2.2168734073638916 0.8508136868476868 0.0
0.5163488388061523 0.3409615159034729 0.0
0.6547463536262512 0.3955095112323761 0.0
1.9480526447296143 0.8710126876831055 0.0
4.689375877380371 0.13700176775455475 0.0
4.698264122009277 0.8675068616867065 0.0
0.7578787803649902 0.8698469996452332 0.0
2.479548454284668 0.13692785799503326 0.0
2.4562506675720215 0.8735422492027283 0.0
2.171211004257202 0.3573116958141327 0.0
3.5117530822753906 0.853193998336792 0.0
4.107914924621582 0.8658969402313232 0.0
2.640726327896118 0.354434996843338 0.0
4.346996307373047 0.1279495507478714 0.0
0.3128283619880676 0.11246757209300995 0.0
0.136248379945755 0.12152919173240662 0.0
4.453908443450928 0.8629162907600403 0.0
1.6064813137054443 0.8679171800613403 0.0
0.3380795121192932 0.6626779437065125 0.0
0.5102446675300598 0.875635027885437 0.0
0.7425088882446289 0.2989330589771271 0.0
3.1349449157714844 0.10448489338159561 0.0
1.3287748098373413 0.6181886196136475 0.0
3.871795415878296 0.38215625286102295 0.0
3.229135036468506 0.3810797333717346 0.0
0.28971707820892334 0.8759857416152954 0.0
0.9214505553245544 0.11992674320936203 0.0
1.9219478368759155 0.6237660050392151 0.0
1.530794620513916 0.29603153467178345 0.0
3.072223663330078 0.7044162750244141 0.0
3.6722235679626465 0.7044162750244141 0.0
[...]
POINT_DATA 715
SCALARS Psi double
LOOKUP_TABLE default
0.0
0.0
1.0
1.0
1.0
1.0
1.0
1.0
1.0
1.0
1.0
1.0
1.0
1.0
1.0
1.0
1.0
1.0
1.0
1.0
1.0
1.0
1.0
1.0
1.0
1.0
1.0
1.0
1.0
1.0
1.0
1.0
1.0
1.0
1.0
1.0
1.0
1.0
1.0
1.0
1.0
1.0
1.0
1.0
1.0
1.0
1.0
1.0
1.0
1.0
1.0
1.0
1.0
0.9083891468433855
0.8353101870895807
0.7290898928181139
0.6109351720644629
0.4865677187124423
0.36059319400714607
0.23650366165807105
0.12006648849255325
0.03526167260972522
0.0
0.0
0.0
0.0
0.0
0.0
0.0
0.0
0.0
0.0
0.0
0.0
0.0
0.0
0.0
0.0
0.0
0.0
0.0
0.0
0.0
0.0
0.0
0.0
0.0
0.0
0.0
0.0
0.0
0.0
0.0
0.0
0.0
0.0
0.0
0.0
0.0
0.0
0.0
0.0
0.0
0.0
-0.0
0.0
0.0
0.0
0.0
0.0
0.0
0.02751709624481883
0.11192129451694595
0.21840129394268706
0.32605109060189436
0.4329494245427657
0.534651358471361
0.6257647833451769
0.6964260101518868
0.6503890384008196
0.5181362204893063
0.521890912324369
0.4947505218743271
0.5007994844659965
0.4747745405780736
0.4750766580977721
0.5038484649065769
0.34584298944353836
0.34267879050390787
0.7109906315008939
0.706895320137782
0.2791702404858467
0.2708716293322706
0.29354284226556704
0.27211293514758994
0.28717610083818496
0.7395226170804808
0.7330476488692366
0.7353699883013601
0.7407691425624234
0.7225016620560774
0.7380809852268481
0.24371408403115688
0.7970900509831595
0.19428320869647348
0.19282457722723703
0.1865344420670534
0.8164420451788447
0.8193859416734112
0.8206258970323116
0.14176511970545388
0.17361687065971754
0.1732227003062535
0.17987214786256328
0.8174761310484251
0.8098000711729678
0.8221525073013851
0.7833830611697892
0.850606970102962
0.14706134664214665
0.12310055052522227
0.14070573971964082
0.12353468708927348
0.4898539043375099
0.4934863061302916
0.5523133825945394
0.06237019399421055
0.09718446667963669
0.8818679050697562
0.1002681232035177
0.8803270296497707
0.8796181983144462
0.500103236010533
0.09457536866298404
0.5066002180953554
0.490783818769075
0.5037114240459916
0.4957824239622716
0.497413598941309
0.4907131442826063
0.4921175421648379
0.493004079029265
0.5055343844807967
0.49813342580342246
0.5125250702904155
0.08871326332058455
0.9205079447517818
0.9191467502528767
0.07067014789066103
0.9261662718329904
0.9301993030315183
0.9100944541367154
0.06519935143271738
0.9280241687930049
0.9244725175252264
0.06804608594869582
0.0884206500225198
0.06707973886676803
0.943998575782896
0.9313694672606601
0.9297648345037475
0.5383753060576725
0.9510006189915918
0.9490556824735698
0.04774910164092883
0.6839805641929203
0.68648485181628
0.3006322411920924
0.0531646621872087
0.5427968646619274
0.04432212624960298
0.6897475836976322
0.2970978804164642
0.30112666659753606
0.316519213622951
0.6722544663397436
0.6763840036750355
0.07052615663691876
0.31113102782763674
0.9412501068630761
0.676462101099736
0.29475931437432795
0.3473827926374012
0.7004447526389139
0.9312032197737553
0.33452185953354036
0.3457195453042724
0.5506129593963215
0.7018633579929998
0.05530308327860439
0.827215354628355
0.04144692173883104
0.04038409337203209
0.039599691773430076
0.33045929219152964
0.04646563340671365
0.6088911571350131
0.6737574196939029
0.31860326649508947
0.30304781705305917
0.6766115463055383
0.6803392906760579
0.3148046610860161
0.35442115300604954
0.6358647544020961
0.6345156275467736
0.6362644879090107
0.6650103451505602
0.7313248652058947
0.9623572162680192
0.029342812204013136
-0.002500811788606284
0.029806358982584973
-0.002026985066539196
0.9697753838420862
0.9696103816269233
0.3545277556329638
0.960997246382893
0.28163240686107
0.35866252126241405
0.9743801849153119
0.03732810730084378
0.9623220268729731
0.9677770044025498
0.03381708815256282
0.9750000702961467
0.31278977689167786
0.944646391268127
0.961592164768013
0.31065028637206255
0.012467691368584112
0.007131664004160049
0.021646273680600507
0.9658475441967121
0.9636604099173212
0.6870155562421036
0.9849171249531198
0.23740149444863126
-0.00022335048284863367
0.6531810066094857
0.33696973971326993
0.34076761121926136
1.001654166224405
0.030845454646341832
0.6620074189127043
0.22758538234212383
0.7769563878273117
0.7620151001821361
0.7645844752720132
1.018436898315393
0.6430922815549017
0.008250475351038122
0.9886787698785404
0.9924250470928041
0.1780405444742265
0.37145488304492014
0.2319586014320179
0.9973993131755545
0.002406448821526785
0.8148794378283963
0.33848226077820875
0.1646579571413677
0.3636654538558715
0.015903099594661192
0.1684397913525628
0.9871698982013176
0.9789497282714074
0.1723070709005886
0.23927812009114852
-0.00793148472440123
0.4498924245187573
-0.013560179067131757
0.42696692078274623
0.24460201547817284
-0.009514309203427994
-0.0059138902170709174
0.43141264568677284
0.44228158430258213
0.42950668884557497
0.5593459227294382
0.5615885400831071
0.0031191331791411733
0.5486422004089233
0.0014673515709120425
0.6513507576362951
0.17724139978276693
0.621606938044062
1.003963379212246
0.7509637076381592
0.2132872875332643
0.7452327979455547
0.2337042025770563
0.24848655858414787
0.7526604760038962
1.0031917774150576
-0.00477227651256629
0.18259182443344463
0.8049736819007091
0.18442802724944557
0.3518796571259565
0.5992672056728848
0.7808782732073788
0.17840126387861274
0.4200558155656006
0.421129849722541
0.5855135384428907
0.57271106218852
0.5731753848710635
0.03316832920741657
0.6766225850250918
0.18078203641696597
0.8100427795039081
0.8064378930452611
0.5623306536570314
0.42796024069806343
0.4388616605776765
0.00010160150953469805
0.5626756106418562
0.8040947269074702
0.188156119535467
1.0130343403895261
0.2439985220649695
0.5584972619956174
0.6318157996574192
0.4339185384296551
0.8069400752672025
0.5543037796242334
0.9965298849779569
0.4572926485023623
0.976713838891137
0.9757150728003338
0.8396955961369853
0.8054539739469364
0.9479688611021483
0.017511679487048477
0.4437806476813746
0.6637543876699978
0.5545492006959774
0.6401269653700515
0.40803999249334644
0.15528319205770402
-0.004089339879986732
0.4572651401906133
0.22903872007101983
0.7833494513228159
0.5389469176677247
0.4517594952309878
0.4556793005166296
0.794139497604656
0.8088707273783151
0.19025731161005266
0.176721502902093
0.8107213831062863
0.4250174305187719
1.0007397991924356
0.1781222454168272
0.8528959123114355
0.8583795329732828
0.3861187236978052
0.8739450999321001
1.0131188382067817
0.17079872271268048
0.20606569279316933
0.6421536532131931
0.35177070033306407
0.6374267561408739
0.6492379387242428
0.12742373604985932
0.6233702097436226
0.3656312398607381
0.3660094044122528
0.005267828138879285
0.4765610088119849
0.2978030443917818
0.6898924808776022
0.7141733886615356
0.36687557284015315
0.8221064857556377
0.6278401490579232
0.6278936031956365
0.6116223989964837
0.011655527769153158
0.013527286306259968
0.19814749567000822
0.7738717397324857
-0.009515806689023078
0.8687920961433616
0.8709544770619452
0.7972217887163022
-0.008147153563034252
-0.010396037591748406
0.22050759412894738
0.36977657066459274
-0.007136913491153765
1.0075351683357299
0.36003908999261286
0.8408295232466229
1.009083112855804
0.8201021252186602
0.17063060821297166
1.0165354638878519
-0.007442628751464557
0.1466333969521715
0.9906411257439907
-0.001961730182396191
0.3414077876180756
-0.002376701572697805
0.6571309316344687
0.0036996851240768203
1.0062297877700501
1.0108266136406603
0.15644305906691633
0.5174104052078957
0.2003960310949806
0.999073858822963
0.831261295617734
0.9999735936792967
0.3759727833497272
0.9988937892730994
1.0129274978458274
0.17189907774521657
0.12927099312897347
-0.007932509131946085
0.33330150058820013
0.6128659126719308
0.5819019394682161
0.4185563600172827
0.5482188596804625
1.0125110435425315
0.26697080802762096
0.5613788808413113
1.0071752714991271
-0.006593138016569823
-0.005526636424861701
0.23223390795802795
0.43044262377586845
0.5570708275543333
-0.0022207459821054136
0.8792765219369669
1.0165529224218135
0.8521463474694148
0.13321522025707838
0.8704244932317686
0.8582238123994828
0.6020298495636366
0.13013917822863766
0.8495535650800763
-0.01106012561761313
0.3196642380509596
0.0005894449269081337
0.8902709012852046
0.105903795936787
-0.009248790324303093
0.5660108548416714
0.5590380583191532
1.0132477487609137
1.0196990008816575
1.0065078651034434
-0.002656234409197519
0.44166767702439413
0.6305921055527746
0.6360127871396495
0.6355478063965037
0.3590562267090848
0.3553282445328926
0.36485661823814736
0.9052262845718415
1.0289056789800421
0.9952376048375137
0.9884787544167201
0.9370587264168693
0.6692310307658381
0.7035594503426756
-0.010017895707974915
0.09244900588606597
0.7359027000675313
0.6715920717581446
0.2961331375219892
0.8788981504035149
0.12909024550767473
0.11408559958039742
0.670892848616212
0.5929545497829041
0.4387102047420394
0.9963804775730807
1.0059822262898206
0.7278801205201094
0.13596878637095072
0.8900926267028553
0.26060487064102433
0.9190055957619383
0.08091521737108757
1.0036598498746991
0.002262257098268488
0.3902040590849253
0.5953172575780176
0.38734515375972084
0.794032073666743
0.07222774241932367
0.5664092543916142
0.39779644813371257
0.7776154409511338
-0.0071829478613072845
-0.01406032947625937
0.1998972552945386
0.22889281597523103
0.08709848737382195
0.14957926425410045
0.8975586374230192
0.7798566857978751
0.21316043637527277
0.7358625340226783
0.2577408801034743
0.8925232085168875
0.8527504595624159
0.8489677560811552
-0.01691910798399946
0.9031537084323178
0.3818640830926446
0.2637695801113852
1.0067131553785507
0.21788275986014513
0.5438345070514875
0.6765807601813113
0.5825016737377516
0.607917796056527
0.06870660097830018
0.9218481950076111
0.9182177600968002
0.10188877471289416
0.7094640829748352
-0.014977639257169594
1.013028923743759
1.0121052399719968
0.06168694123414709
0.08863599084736988
0.8646251259530824
0.2851409337283084
0.9160226361751738
0.47041527879056505
0.804200450319809
-0.0022162112151366334
0.6028834159025098
0.3835481116726841
0.3917203742036537
1.0051945102206639
-0.00766601893670825
0.5823311153343976
-0.012115123139728673
0.4204364108121446
0.0949453196943031
-0.005315575766847433
0.2837246835578
0.5945386282777101
0.7358728182267796
0.7266922935963444
0.9144680994709777
0.07979582320364913
0.28577056689835634
0.24105144317222602
0.7075325129893041
1.0104723924501993
0.268327862045014
0.10461614925492266
0.2436100422208878
0.08074700533868259
0.8836592593012312
0.07845414975137918
0.25282705425162644
0.7381385169672753
0.7364293508069087
0.7471182031932492
0.41542966245391927
1.0132083887884284
0.40376028767144756
0.87090730674065
-0.006844397333337772
0.08342447991668618
0.06252152696055421
0.5734734067682248
0.10782875218134572
-0.0025772703418030785
0.06211338766133314
0.09718689568668713
0.428064697882506
0.5525573951453268
0.04949765717493253
0.24180635289067623
-0.00562103537629637
1.0049158800439584
0.8606195426393566
0.4375211566803436
0.5521851601867849
0.597529788797565
0.8964781259197028
0.08205771426580663
0.08045614519830707
1.0005847070491183
0.04840756636404158
0.5316793438550829
0.35718497822441314
0.1559915764598698
-0.00845707821116357
0.7362441416384041
0.9100687452062753
0.19493867450518343
0.17414726535113242
0.7921019700565075
1.0091927519696708
0.06666859925506027
0.9067834515089904
0.9058628129426701
0.45132706256852295
0.4508060151850482
1.0080906416802722
0.2512057693943418
0.35159926038762485
0.404554843120183
-0.006767172809991944
0.9413037041391429
0.9419395255696139
0.26782689734495335
0.5739175317552773
0.7776443876310983
0.7780185797485544
0.2286443986756384
0.7746212821218265
0.2780278309911405
0.8263795450167791
0.8300689994986943
0.5831818115215346
0.8468874118984948
0.5866708575384461
0.08153071410460849
0.9122329539224281
0.41442099542122446
0.5847240144574399
0.4030084679769605
-0.01579923908570353
0.3400869696219591
0.07895802187728872
-0.005907672391300615
0.5561397706178252
0.1612229495223959
0.25586389887923944
0.09165455141992723
0.7372835077828545
0.8189638873355025
0.954936953501659
0.5652425063050484
0.003354640209687193
0.4337867940980198
0.10876069542995535
1.0015237021944363
1.0023987444527824
-0.006730259618911119
0.07552694107064188
0.9171407137639614
-0.0026449380347583224
-0.012419352494691676
0.28364348628688485
0.7076642672023842
0.46121171494084306
1.0042977154217667
0.28749503822972744
0.7618270385960406
0.24875535823374934
0.7469017284512441
0.24298648297429798
0.9776761966991533
0.002457050697311851
0.4251592258284549
1.0083873111140158
0.9297037542639278
0.07324471671388919

SCALARS Omega double
LOOKUP_TABLE default
-7.431490656019127
-1.2609464182223287
8.622013366215755
15.741171807454784
35.89453020156159
-4.379918591527587
3.8209942227158225
-0.7549212271409095
1.158892854007683
5.711216726369127
0.7414541563319856
-1.0897093350168987
1.4702308900663452
3.7661820630110423
0.9857617848691657
1.4905235979801494
1.3186789355101907
1.2649979726066394
3.750032374457842
0.18746145600376407
4.288869262668277
2.7101158950177444
-1.4925352638697227
1.3874891841870245
2.9125026578692466
2.1069690027354366
1.961363245444036
-0.28027684823322035
0.18364359169201647
3.5046476445086245
2.61464203408643
1.742404834990503
2.561401022531405
1.4732635687853732
0.8360976395615383
1.8663039078210917
1.6470128963233417
0.9111538719189193
3.3204919974924585
2.7219842062349904
2.6592800626652973
1.686459578873477
1.2799573433782059
1.2795284381011276
2.0401782178895536
2.3581112118040597
4.2046645065819375
0.6181398246526311
-0.8812357762933914
5.193163234719984
2.314576828006249
4.839763600550819
11.471804990597153
-6.310494016577577
-0.013027182225462959
1.110461412846888
0.7420646306330101
-0.04388882125619457
-0.17443937760684894
-0.5774480397425438
-1.3187839834136725
-2.957725073390183
-1.3405569026547366
-3.7751333241374683
-2.1627905483800705
-0.6872867390275309
-2.736960590558146
-1.049749510226458
-1.7797291289404715
-2.3406952098149802
-0.5822106198999352
-1.4164565754082201
-0.867137247377431
0.8918683237196308
-3.3681193883962455
-0.5395740968254771
0.6261914198677667
-3.713585372245825
-1.8857757740789234
0.29565252008239307
-3.3989486653235166
-2.4287215517510012
-1.3849758390005107
-2.2583246051256634
-1.5582776322783651
-2.454216531034723
0.5501227077827269
-0.48923939382996867
-2.8579726806901364
-2.612852656956305
-1.3744473226510396
1.2780997737858422
-2.452200508972946
-2.1949521026424117
0.45059894762881214
-1.5342995084631583
-2.3336499037483307
-0.6773483274170184
-1.3957263775346511
-3.3703867557206006
-2.5137618939418767
-0.772423037456276
-3.311721731148853
-0.278341389151578
-3.9302457852644914
-0.5082440104813339
0.029838068101789544
-3.952801782325189
-2.719006946643795
-0.8281151575612875
1.1174431492763748
-4.4166701811770155
2.5625405129226726
0.21769035443635057
-0.23881501692413343
-0.859232613710325
1.1038529023834247
-5.936279609134282
-1.8554542286946452
-41.360667330416796
-0.00023752991907161598
-0.0009214435594685515
0.0014176288513182494
0.0008648279279953804
0.0004979202904972078
0.0015032245192972242
-0.0006391754123960544
-0.06559554262062729
-0.028611761817158615
0.056631373451287624
-0.0070845788225191
0.007757965771456586
0.00179994799001237
-0.023208591963304607
0.06887928399382735
-0.05993877961158821
-0.15797443594886904
0.009167931079229752
-0.029318781639685466
-0.13504404826763977
-0.030887444417622284
-0.02779398231195025
0.053409522000681726
-0.14891814344920773
0.15810997371590377
-0.1153075599954797
0.1107472807967065
0.03630105054699023
0.25478278366947044
-0.16347008174040412
-0.16175631032359475
0.10730324809619364
0.21133743424732265
0.2294025601810517
0.16719610553369466
-0.00996055544465528
0.09313552261359423
0.2512807935152986
-0.1646073889730291
-0.46224723850485616
-0.4457448590747262
-0.18700076752462733
-0.22722278446242677
-0.17884139725674084
-0.016482833070672415
0.003774912169873006
-5.35121435853564
-0.39594649020110323
0.5977364747122993
-0.22974899157417406
0.8108346289098264
0.804490619930578
-0.0008932545771938884
-1.16219497649466
-0.005269467718835533
-0.001180504856283114
0.001335485170898144
-0.001841425149248324
-0.0016540138366901605
-0.0005652827823149275
0.0009820462173916527
-0.0005506426888428562
0.0036523717001975846
0.0012792172563260457
-0.002497921889651297
-1.2333300620884324
2.208270918859795
2.0401383836833675
-2.1350787925098844
2.5094452114931123
2.9412425642571587
2.5788043151716256
-2.928178235948243
2.477027514958446
2.528440687823614
-2.9502185321002727
-1.047025337347969
-4.356126241701754
5.822788671397024
2.1896023732370096
2.919422929979716
-0.00557635901240558
6.914116578022786
5.050700239704033
-5.224363609471924
0.011868850269917533
0.02614404853822866
-0.015575352692746626
-3.0350419173057768
-0.040012420993782855
-5.487893757687374
0.025636522315055955
0.016680915845817407
-0.05153228841466637
-0.015126564821002476
0.02412869714902995
0.022084766618883082
-2.7755415166939708
-0.20844075999222172
3.520950957207996
-0.08537070972794386
0.09506999731530041
-0.011721028533986318
0.020599298361003736
2.540688182297834
-0.01468632998759157
-0.00335889361842232
0.005243066775062488
0.029973083829993852
-5.1125475128971924
-2.2937388481197414
-6.627353730326942
-6.254855944222381
-6.683141453277073
-0.025446806495076392
-4.021347150771471
-1.8242392411071686
0.01381498865690931
-0.01583892235190874
-0.03969846958819583
0.036679241587059194
0.014179301909581273
-0.014328026226065408
-0.0008445433899685934
0.019644322013723355
0.008673137906842994
0.003706027816503848
0.02962316050199216
0.0034421272435914167
6.769817809772941
-8.135633663211198
-14.249589323556801
-7.437363401621038
-14.36574995639436
9.059906162113649
9.400212736370127
-0.00526239157711694
7.69336794515078
-0.02768321209330619
-0.01456141799714482
9.050116636530083
-5.779541072759409
9.012743286988107
7.145134672037713
-6.772910721630299
7.969265111986985
-0.012999316224347694
4.108428019643628
8.385201393220743
-0.022321019101398026
-11.81380372374366
-12.697370022540913
-9.71515435383377
7.247626054672291
7.235076493866521
-0.20779957146931008
11.051696998381614
0.020786250931040064
-15.382613533469256
0.013931106065579572
-0.00142752614902032
-0.001927437492125095
19.504863691837542
-7.166658194663292
0.0010755463707602122
0.10648651626016516
-0.12834278919929115
-0.06012102388139506
-0.09491901145396962
18.41620629691932
0.006510643040273472
-11.945031975764712
12.184793735148236
11.10712716674043
-0.2287270634716754
-0.014511229091849888
0.08375737713581338
14.161073830742364
-13.151429537318224
-0.4248659801317381
-0.025771005370152904
-0.3057319613649569
-0.16941850418383392
-10.245966710071889
2.3057976394929223
13.221492784451197
9.303433935918815
-0.03318996942537955
0.05296654075538759
-16.940417661637355
0.00023516811253811523
-18.242805135382895
-1.0330958517635134
0.00701464086261172
-15.566317867332845
-16.066812934823623
-0.0012487476850830065
0.0024300539203834077
-0.009643438052502494
-0.003582075543832178
0.0019723313724589434
-14.214586582640653
0.288457481889727
-14.986140644051222
0.019533097491289297
0.11202265498291086
-0.7623720756550071
16.375934080998544
-0.06235653567593162
0.19411131329720366
-0.03831246856751652
0.2333484481909967
0.04417271807957791
-0.19047654951873016
16.856817261608374
-15.204735778086517
0.10623230106684149
-0.04678461182650887
0.3341849673346333
0.002711138397634068
0.009331507560125619
0.5997656766194104
-1.0387469944122372
-0.0001331345039140662
0.007262827549431144
0.003663828935729649
0.0040810146587959535
0.005194943831349835
-7.013059469119071
-4.918092747264467
0.27595541400641477
-0.08696719444683496
-0.1345829117424718
0.004871601814054571
0.0008701056670744109
0.0014635867592498175
-16.734265061813513
-0.001066945494336897
-0.14984330362328982
0.10686894026075008
16.829055434414947
0.08256178056816114
-0.0008750663904152671
-0.004566409807759628
0.0026578489360956042
-0.033979414663712466
-0.0011161470557894992
14.897534565788694
0.0019585876885103467
9.472097545309657
8.702661599416539
0.06933372048289363
-0.003350771092294829
5.335190315074609
-11.971477914784591
-0.005899685356642811
0.03540811215789233