# vtk DataFile Version 1.0
2D Simulation C++
ASCII
DATASET UNSTRUCTURED_GRID
FIELD FieldData 1
NODES 1 2 int
715 1308

POINTS 715 double
0.0 0.0 0.0
5.0 0.0 0.0
5.0 1.0 0.0
0.0 1.0 0.0
0.10000000149011612 1.0 0.0
0.20000000298023224 1.0 0.0
0.30000001192092896 1.0 0.0
0.4000000059604645 1.0 0.0
0.5 1.0 0.0
0.6000000238418579 1.0 0.0
0.699999988079071 1.0 0.0
0.800000011920929 1.0 0.0
0.8999999761581421 1.0 0.0
1.0 1.0 0.0
1.100000023841858 1.0 0.0
1.2000000476837158 1.0 0.0
1.2999999523162842 1.0 0.0
1.399999976158142 1.0 0.0
1.5 1.0 0.0
1.600000023841858 1.0 0.0
1.7000000476837158 1.0 0.0
1.7999999523162842 1.0 0.0
1.899999976158142 1.0 0.0
2.0 1.0 0.0
2.0999999046325684 1.0 0.0
2.200000047683716 1.0 0.0
2.299999952316284 1.0 0.0
2.4000000953674316 1.0 0.0
2.5 1.0 0.0
2.5999999046325684 1.0 0.0
2.700000047683716 1.0 0.0
2.799999952316284 1.0 0.0
2.9000000953674316 1.0 0.0
3.0 1.0 0.0
3.0999999046325684 1.0 0.0
3.200000047683716 1.0 0.0
3.299999952316284 1.0 0.0
3.4000000953674316 1.0 0.0
3.5 1.0 0.0
3.5999999046325684 1.0 0.0
3.700000047683716 1.0 0.0
3.799999952316284 1.0 0.0
3.9000000953674316 1.0 0.0
4.0 1.0 0.0
4.099999904632568 1.0 0.0
4.199999809265137 1.0 0.0
4.300000190734863 1.0 0.0
4.400000095367432 1.0 0.0
4.5 1.0 0.0
4.599999904632568 1.0 0.0
4.699999809265137 1.0 0.0
4.800000190734863 1.0 0.0
4.900000095367432 1.0 0.0
5.0 0.8999999761581421 0.0
5.0 0.800000011920929 0.0
5.0 0.699999988079071 0.0
5.0 0.6000000238418579 0.0
5.0 0.5 0.0
5.0 0.4000000059604645 0.0
5.0 0.30000001192092896 0.0
5.0 0.20000000298023224 0.0
5.0 0.10000000149011612 0.0
4.900000095367432 0.0 0.0
4.800000190734863 0.0 0.0
4.699999809265137 0.0 0.0
4.599999904632568 0.0 0.0
4.5 0.0 0.0
4.400000095367432 0.0 0.0
4.300000190734863 0.0 0.0
4.199999809265137 0.0 0.0
4.099999904632568 0.0 0.0
4.0 0.0 0.0
3.9000000953674316 0.0 0.0
3.799999952316284 0.0 0.0
3.700000047683716 0.0 0.0
3.5999999046325684 0.0 0.0
3.5 0.0 0.0
3.4000000953674316 0.0 0.0
3.299999952316284 0.0 0.0
3.200000047683716 0.0 0.0
3.0999999046325684 0.0 0.0
3.0 0.0 0.0
2.9000000953674316 0.0 0.0
2.799999952316284 0.0 0.0
2.700000047683716 0.0 0.0
2.5999999046325684 0.0 0.0
2.5 0.0 0.0
2.4000000953674316 0.0 0.0
2.299999952316284 0.0 0.0
2.200000047683716 0.0 0.0
2.0999999046325684 0.0 0.0
2.0 0.0 0.0
1.899999976158142 0.0 0.0
1.7999999523162842 0.0 0.0
1.7000000476837158 0.0 0.0
1.600000023841858 0.0 0.0
1.5 0.0 0.0
1.399999976158142 0.0 0.0
1.2999999523162842 0.0 0.0
1.2000000476837158 0.0 0.0
1.100000023841858 0.0 0.0
1.0 0.0 0.0
0.8999999761581421 0.0 0.0
0.800000011920929 0.0 0.0
0.699999988079071 0.0 0.0
0.6000000238418579 0.0 0.0
0.5 0.0 0.0
0.4000000059604645 0.0 0.0
0.30000001192092896 0.0 0.0
0.20000000298023224 0.0 0.0
0.10000000149011612 0.0 0.0
0.0 0.10000000149011612 0.0
0.0 0.20000000298023224 0.0
0.0 0.30000001192092896 0.0
0.0 0.4000000059604645 0.0
0.0 0.5 0.0
0.0 0.6000000238418579 0.0
0.0 0.699999988079071 0.0
0.0 0.800000011920929 0.0
0.0 0.8999999761581421 0.0
0.7496038675308228 0.5164291858673096 0.0
1.3451675176620483 0.5190238952636719 0.0
1.9462687969207764 0.4963642954826355 0.0
4.456614971160889 0.5060901641845703 0.0
3.864220380783081 0.4866538345813751 0.0
3.249823808670044 0.482722669839859 0.0
2.6500000953674316 0.5 0.0
0.3810288906097412 0.399004191160202 0.0
2.308779239654541 0.3797946870326996 0.0
1.0499999523162842 0.6625000238418579 0.0
1.644740104675293 0.6598879098892212 0.0
4.150000095367432 0.3375000059604645 0.0
3.555316209793091 0.3343118131160736 0.0
2.9446933269500732 0.3401789665222168 0.0
1.6342840194702148 0.3290160894393921 0.0
1.0591840744018555 0.33908534049987793 0.0
2.9654481410980225 0.6753292679786682 0.0
3.5534629821777344 0.6835107207298279 0.0
4.153462886810303 0.6835107207298279 0.0
2.2139804363250732 0.6805098056793213 0.0
0.4914395809173584 0.6739721894264221 0.0
4.691666603088379 0.6916666626930237 0.0
4.691666603088379 0.3083333373069763 0.0
2.4872219562530518 0.7236665487289429 0.0
0.6240421533584595 0.2677222192287445 0.0
2.0697431564331055 0.2657754421234131 0.0
2.5389034748077393 0.26082900166511536 0.0
0.8147311806678772 0.7450684309005737 0.0
1.2897310256958008 0.743314266204834 0.0
1.8853894472122192 0.7450258731842041 0.0
4.382374286651611 0.23655959963798523 0.0
3.910269021987915 0.25668570399284363 0.0
3.1838724613189697 0.25397706031799316 0.0
1.398239254951477 0.2614254057407379 0.0
3.201760768890381 0.7385746240615845 0.0
3.8017609119415283 0.7385746240615845 0.0
4.39177942276001 0.7466779351234436 0.0
0.25301694869995117 0.7458874583244324 0.0
2.7258167266845703 0.7600342631340027 0.0
0.84163498878479 0.2263137847185135 0.0
0.22429518401622772 0.22429518401622772 0.0
2.7605957984924316 0.22504857182502747 0.0
1.8330284357070923 0.2150011658668518 0.0
0.2192869633436203 0.5323538780212402 0.0
4.7908525466918945 0.5038931369781494 0.0
2.466000556945801 0.5376454591751099 0.0
3.7061264514923096 0.17723728716373444 0.0
3.3929696083068848 0.20266839861869812 0.0
1.4905184507369995 0.7937026619911194 0.0
1.2104878425598145 0.20361483097076416 0.0
3.9895122051239014 0.7963851690292358 0.0
3.389512300491333 0.7963851690292358 0.0
0.5652223825454712 0.5070380568504333 0.0
0.44509074091911316 0.19716571271419525 0.0
2.1318352222442627 0.5042122602462769 0.0
1.548349142074585 0.4954715371131897 0.0
3.050636053085327 0.5004673004150391 0.0
0.9511125087738037 0.498258113861084 0.0
3.651650905609131 0.5045284628868103 0.0
4.248488903045654 0.4980509281158447 0.0
1.1537858247756958 0.49593159556388855 0.0
4.050199031829834 0.49993085861206055 0.0
3.464722156524658 0.509624183177948 0.0
1.749653697013855 0.5001751780509949 0.0
2.851828098297119 0.5057260394096375 0.0
2.359710216522217 0.1888567954301834 0.0
2.0499017238616943 0.8199846148490906 0.0
0.6430503129959106 0.8181284070014954 0.0
4.560274600982666 0.1724673956632614 0.0
4.55863094329834 0.8299665451049805 0.0
2.321284055709839 0.8242537379264832 0.0
4.815218925476074 0.8345447778701782 0.0
4.837246894836426 0.16590170562267303 0.0
0.9682294130325317 0.8331464529037476 0.0
1.730908751487732 0.827606201171875 0.0
4.220076560974121 0.17516615986824036 0.0
3.02066969871521 0.18326662480831146 0.0
1.5634372234344482 0.17044226825237274 0.0
3.035303831100464 0.8294908404350281 0.0
3.627507209777832 0.8360387086868286 0.0
4.2312469482421875 0.8315803408622742 0.0
4.618130683898926 0.5361976027488708 0.0
0.40311703085899353 0.8369210362434387 0.0
1.1473191976547241 0.8458209037780762 0.0
4.052680969238281 0.15417908132076263 0.0
2.020958423614502 0.6394158005714417 0.0
0.662188708782196 0.6447370648384094 0.0
4.5115838050842285 0.3538685142993927 0.0
1.0221220254898071 0.15309639275074005 0.0
0.3837882876396179 0.5515117049217224 0.0
3.548090934753418 0.15800617635250092 0.0
1.4348299503326416 0.6465393304824829 0.0
3.765170097351074 0.3534606993198395 0.0
3.3348300457000732 0.3534606993198395 0.0
1.2546738386154175 0.36384353041648865 0.0
3.945326089859009 0.636156439781189 0.0
3.3412928581237793 0.637225866317749 0.0
2.1904795169830322 0.17066854238510132 0.0
0.16392111778259277 0.38331863284111023 0.0
2.87723445892334 0.8265392184257507 0.0
4.8459792137146 0.6499902606010437 0.0
4.845625400543213 0.34837812185287476 0.0
2.771622896194458 0.38129922747612 0.0
4.5222978591918945 0.6578375697135925 0.0
2.604464530944824 0.8240283727645874 0.0
1.8544400930404663 0.3751189708709717 0.0
0.8566747903823853 0.38255012035369873 0.0
2.2932615280151367 0.5369129776954651 0.0
2.620572805404663 0.6496497392654419 0.0
0.7172287106513977 0.1490369737148285 0.0
0.1410960853099823 0.8303417563438416 0.0
1.7142322063446045 0.142862930893898 0.0
2.6314175128936768 0.14492936432361603 0.0
1.9832650423049927 0.1408119648694992 0.0
2.445650577545166 0.370038241147995 0.0
2.885042667388916 0.1455758661031723 0.0
0.13937503099441528 0.6546638011932373 0.0
0.9110832810401917 0.6349053978919983 0.0
3.088575839996338 0.3613528311252594 0.0
4.296638011932373 0.3563385307788849 0.0
1.1930090188980103 0.6355591416358948 0.0
1.788455843925476 0.6387236714363098 0.0
4.006990909576416 0.3644408583641052 0.0
1.4459187984466553 0.39242905378341675 0.0
4.354081153869629 0.6075709462165833 0.0
3.7540812492370605 0.6075709462165833 0.0
3.1591691970825195 0.6018876433372498 0.0
2.7615907192230225 0.6205627918243408 0.0
2.36276912689209 0.6735464930534363 0.0
1.3681535720825195 0.8630191683769226 0.0
3.8318464756011963 0.1369808316230774 0.0
3.275517463684082 0.10712132602930069 0.0
0.5630941987037659 0.12814241647720337 0.0
1.3237862586975098 0.10638008266687393 0.0
3.2733232975006104 0.8705052733421326 0.0
3.8733232021331787 0.8705052733421326 0.0
2.0396511554718018 0.38928428292274475 0.0
2.2168734073638916 0.8508136868476868 0.0
0.5163488388061523 0.3409615159034729 0.0
0.6547463536262512 0.3955095112323761 0.0
1.9480526447296143 0.8710126876831055 0.0
4.689375877380371 0.13700176775455475 0.0
4.698264122009277 0.8675068616867065 0.0
0.7578787803649902 0.8698469996452332 0.0
2.479548454284668 0.13692785799503326 0.0
2.4562506675720215 0.8735422492027283 0.0
2.171211004257202 0.3573116958141327 0.0
3.5117530822753906 0.853193998336792 0.0
4.107914924621582 0.8658969402313232 0.0
2.640726327896118 0.354434996843338 0.0
4.346996307373047 0.1279495507478714 0.0
0.3128283619880676 0.11246757209300995 0.0
0.136248379945755 0.12152919173240662 0.0
4.453908443450928 0.8629162907600403 0.0
1.6064813137054443 0.8679171800613403 0.0
0.3380795121192932 0.6626779437065125 0.0
0.5102446675300598 0.875635027885437 0.0
0.7425088882446289 0.2989330589771271 0.0
3.1349449157714844 0.10448489338159561 0.0
1.3287748098373413 0.6181886196136475 0.0
3.871795415878296 0.38215625286102295 0.0
3.229135036468506 0.3810797333717346 0.0
0.28971707820892334 0.8759857416152954 0.0
0.9214505553245544 0.11992674320936203 0.0
1.9219478368759155 0.6237660050392151 0.0
1.530794620513916 0.29603153467178345 0.0
3.072223663330078 0.7044162750244141 0.0
3.6722235679626465 0.7044162750244141 0.0
[...]
POINT_DATA 715
SCALARS Psi double
LOOKUP_TABLE default
0.0
0.0
1.0
1.0
1.0
1.0
1.0
1.0
1.0
1.0
1.0
1.0
1.0
1.0
1.0
1.0
1.0
1.0
1.0
1.0
1.0
1.0
1.0
1.0
1.0
1.0
1.0
1.0
1.0
1.0
1.0
1.0
1.0
1.0
1.0
1.0
1.0
1.0
1.0
1.0
1.0
1.0
1.0
1.0
1.0
1.0
1.0
1.0
1.0
1.0
1.0
1.0
1.0
0.9188777147303914
0.8643144604429405
0.7627237679924836
0.6274715159387578
0.4722584370427455
0.3156925562245729
0.17768783731620974
0.07373339983493006
0.019532511633828128
0.0
0.0
0.0
0.0
0.0
0.0
0.0
0.0
0.0
0.0
0.0
0.0
0.0
0.0
0.0
0.0
0.0
0.0
0.0
0.0
0.0
0.0
0.0
0.0
0.0
0.0
0.0
0.0
0.0
0.0
0.0
0.0
0.0
0.0
0.0
0.0
0.0
0.0
0.0
0.0
0.0
0.0
-0.0
0.0
0.0
0.0
0.0
0.0
0.0
0.02734811712248799
0.1076925230330441
0.20922643341167366
0.31086821940485687
0.41245767852388854
0.5108119692001152
0.6026308656379887
0.6784439111716576
0.641637153777915
0.5299135322626087
0.5429324236839025
0.5008308295962856
0.49400918593595766
0.46837702506855444
0.470637838274972
0.5119591664898021
0.320377107718273
0.31116041622859925
0.7743765480637282
0.7635833262999178
0.22895355963274866
0.22372629476405767
0.24779852851143763
0.22875221394664533
0.2549344434099693
0.791767727280967
0.7881946417258721
0.7855762549239657
0.7967100260922668
0.7598121927575568
0.7838022863193467
0.17989689855276986
0.8539049869078204
0.1567831409778372
0.14651861777945696
0.14214633154180578
0.8815189182325155
0.8767567637939463
0.8743523298736049
0.09288632806318385
0.12319511022549207
0.1238189596454309
0.13608720462015603
0.8677824544269287
0.861459819626941
0.8670188706339572
0.7934524125386858
0.8999306138086451
0.11054208620041325
0.11126868369307633
0.09764929017017303
0.08347161135570799
0.4645547902045247
0.4809450863558043
0.5743573127772933
0.04019593369836228
0.0628658492364422
0.9289050642842692
0.06987972601726287
0.92480569226378
0.9255124796539482
0.49536180178885486
0.07116603986173685
0.5157708211802038
0.5006063459347356
0.5071822757914237
0.5096950211432718
0.4996510118042308
0.48440516657728194
0.5066929872442381
0.48963477802729394
0.5104800018237189
0.5069275749067172
0.5205506385835948
0.05827297292441719
0.9530452333953096
0.9590153858270619
0.037638721744968295
0.9528245746933897
0.9591785635680672
0.9414059644432302
0.029443483823723318
0.9639069863633927
0.9560474995007577
0.04081530270758955
0.05271543270274732
0.04114643381196179
0.9650898800691939
0.9608494013671532
0.9575728865589082
0.5401715332405091
0.9786679088516994
0.9709091690454471
0.03003872642982137
0.7329487551076637
0.7343363962599299
0.24674988866780573
0.03678025385995794
0.5292464301171319
0.02906652334836566
0.7469681941008973
0.2518169965354243
0.2565932985482322
0.28735568274205886
0.7143455527541247
0.7218077027904835
0.04493572860002763
0.2947904559826838
0.9643432357349155
0.7126781871408553
0.23162885719218718
0.3147476092641588
0.7409695453813797
0.9598026258664583
0.3007018773258309
0.3222129504851557
0.5715329669269877
0.7546405367330288
0.03724230574165108
0.8225882867719327
0.025819444728954425
0.027705269418412008
0.0253620524330046
0.2971631711405306
0.026553367062771165
0.583789554215645
0.7314716331868851
0.2768089352131364
0.2541774221584688
0.7330565933650582
0.730580145351088
0.27036733549848396
0.33011032767155335
0.6648269660849041
0.67000227146508
0.6722114373448936
0.709560457028221
0.7860830326840401
0.9791293753509833
0.01769539074409863
0.0017529396910648347
0.02126016505151836
0.0010235335990379589
0.9812493512490114
0.9821440053279066
0.32517199459420704
0.9759318102136567
0.24958417938247532
0.33439035743057244
0.9852173035986201
0.020039912673832316
0.9785024816847263
0.9849403917824078
0.023520873894809162
0.9841399393127714
0.2756134407761004
0.969377177257783
0.9799734088257371
0.2736755504892746
0.005765619287888426
0.006013634891024266
0.022589825458807614
0.977102890453734
0.981025831520051
0.6941942755879031
0.9922318783600106
0.1999029494779754
0.002980160185308404
0.704445985344417
0.2976234452779219
0.3035874219443142
1.018761362462128
0.02181821690871396
0.7075208742025743
0.18234210139045454
0.8285994445909483
0.8159880657385595
0.8130443121870455
1.0059378845266336
0.68902783241743
0.004077065026070563
0.9947312601949531
0.9943943761354654
0.1550514231554382
0.32694822404880075
0.18455080477578945
0.9958469554857214
0.0036138846192284276
0.8682590886693955
0.2937802920533286
0.12749712205871339
0.3409301759773322
0.011679583193387728
0.16199373403470133
0.9905290259177529
0.9901084142526816
0.12780607933812926
0.19176596903352977
-0.0015963428588685916
0.44418376272050925
-0.003612844102725763
0.4047581510067708
0.19517251139596462
-0.0038392444242148905
0.0006512226120688698
0.41020120837823487
0.4296234269388341
0.4136703247729975
0.5922359686275093
0.589414809555947
0.003096558214658128
0.5525171940100436
0.0016027102436844195
0.6954671162155895
0.1312047310150799
0.6021100374347474
1.001257787057864
0.8028593741673514
0.1734320340222065
0.8011339574068143
0.18284902783595525
0.20114558560820908
0.8147454245640919
0.9983648461726499
0.0015259431027661332
0.13220034866164299
0.8651484252515911
0.1340309337786868
0.3304390231993224
0.6176467825438235
0.8259415438927865
0.10888469852309303
0.4085978201013349
0.41663904954994163
0.6113742534742236
0.5960935201056643
0.5905493348427214
0.020322298111501824
0.6538693737591931
0.13791184591771694
0.8642837790661807
0.8599510188087677
0.5952037164154862
0.4079201576675445
0.42401659939547587
0.003624351964627676
0.5881532101048657
0.868254426669649
0.13503560636717
1.0065370885336902
0.19799106230156288
0.5741898289857027
0.6578410233120774
0.4072650017179914
0.8611014157105782
0.5813443130408628
0.9994064258220181
0.453648392964876
0.9882063274940744
0.9873863322555486
0.8945880795552721
0.8672606402775692
0.958231671022488
0.006316503013841548
0.42396154229164573
0.7081360820063398
0.576323859880114
0.6814301216162332
0.36991093737418707
0.10566726425114838
-0.001389991798600029
0.4402375735345418
0.2114326130795628
0.8389285615496263
0.5637323142836158
0.4402447872334929
0.4461961755009844
0.8512657063369429
0.8764729844362806
0.13876845567414897
0.12395193350202235
0.8667480359101041
0.41229456192698943
0.9991285081195836
0.14234232144276476
0.9035977886094843
0.9046587024679914
0.3604450374970991
0.9169773980413167
1.00405579933109
0.11556221809522053
0.1449337120923442
0.6744739107770571
0.3247695483945511
0.6753837732262024
0.6883554372038826
0.08536745929401145
0.6676274923982773
0.3345363103146145
0.3344068401149071
0.006508612412329325
0.47612013526084074
0.2630407554818072
0.7355105048463981
0.7634581546133206
0.34053919493261603
0.8769586679838258
0.6643166585816821
0.659884709422721
0.6340050232008575
0.007699084688110638
0.007508323234033241
0.13342446935485075
0.821631797298396
-0.0031492713160466996
0.9159726872148025
0.9154414431590021
0.8461323520778152
-0.0035022589566276858
-0.002918065206685514
0.19011669574594522
0.34303419986944134
3.119542205433453e-05
1.000462598698444
0.3368718730380546
0.8855456033089766
1.000243066492009
0.883295167711317
0.12092033947100271
1.0059271370523823
-0.0017063460411517186
0.1049029860285299
0.995408198092419
-0.0005515832817727563
0.31770695768939433
0.0006008997576660672
0.6894929597647486
0.003705727843365719
1.002110894213911
1.004557981853098
0.11215355321526231
0.49313833882115254
0.15311180423860724
0.997849348359389
0.8860414975500925
0.9989065489053175
0.3312020265897758
0.9993584523511636
1.0028083498009341
0.13337236588494403
0.08839574087042543
6.612201894539778e-05
0.2826005615499308
0.6492868411866838
0.5855869587105864
0.41227046999061834
0.5609934691448546
1.0040648883880472
0.25553554178053084
0.5704829528886286
0.9999778614096303
0.0002746739629269687
-0.0014020329233353794
0.19358646984711847
0.4071286947495587
0.5800608306484593
-0.001900995586526789
0.9196970197510022
1.005383920477668
0.8847748555275685
0.09134121844785544
0.9135542344909565
0.9065864204489907
0.6351342157807319
0.07917968343636438
0.8944358102917296
-0.0018943105970691296
0.2830825396086274
0.0025938121622194827
0.9328078983884203
0.06768012336181115
-0.0015438660913307204
0.5865969425169654
0.5399431996439374
1.0043241719252056
1.015454593316969
1.0015699522524835
0.001285171659966886
0.43394232171556335
0.6798718478020925
0.6874128705792334
0.6795625748947014
0.3208400189093503
0.3167893647100727
0.33225722924986845
0.9438271616163554
1.0353833541721038
0.9973829747583639
0.9946457120247754
0.9633844263690846
0.6847173779611402
0.7571132367128436
-0.0021115968105992573
0.06492224899842365
0.7907226241458353
0.704524218164936
0.23457387298096738
0.8726670718280305
0.08634362377536553
0.07655493700470789
0.7182087310242575
0.6179810015455225
0.43433244735935544
0.9981780299151827
1.0013283786511575
0.7714714290410568
0.10029765304963772
0.9305430914017987
0.21540329390516902
0.9522569430810491
0.054619190683614524
1.0004053711280356
0.002153731054309702
0.3688957546235971
0.6119716411112336
0.36470565685697137
0.8332470514970385
0.04235093307092419
0.591762716085971
0.3755174895324124
0.8367870501625437
-0.0012373608316503836
-0.003651120647612325
0.18944506475895717
0.17646354271358322
0.05655587203292508
0.10590114913273538
0.9456715737218231
0.8412111124531196
0.16098868303477726
0.8014412364338656
0.20563569765695117
0.9068384815121635
0.9013116324010524
0.9010016007144496
-0.004780971021619355
0.9403322529288519
0.35865165488660067
0.21921455624979155
1.0005889961094991
0.17073063967826935
0.5576524922607965
0.7121943284914868
0.6084965763035829
0.6409762809873957
0.04338303143110525
0.9516094777780033
0.9504498376730166
0.05699681840945787
0.6962812873260217
-0.00625494130915535
1.006058793422986
1.0038397876774727
0.037512567119559505
0.04357497844811029
0.8937601163018525
0.2518485977774526
0.9472233269314991
0.4519186219139409
0.8595332079445476
-0.00039872946379585335
0.6433175766803587
0.355052318775485
0.3662446759784022
1.0012140594630579
-0.002175305065515898
0.557333791736757
-0.007552121583134854
0.4133023148999117
0.06742355782349621
-0.0011388379255279372
0.2363942832073798
0.6258820706144637
0.7203057536157369
0.781998787182475
0.9497990580931857
0.04817944479792947
0.24414176558928738
0.18635117948786334
0.7696655042848509
1.0046341782339594
0.23304609266501547
0.06980046567922149
0.18710890973738198
0.05461269887732407
0.9293089832407209
0.047213421502591335
0.21042480783854406
0.7840445768675269
0.7881787231414286
0.7986711017698741
0.4075407667513705
1.0058864778800805
0.3715311831690828
0.9167643064730648
-0.0013125143758100709
0.05140811786433994
0.04077666242354056
0.5981084642872078
0.07136400750272276
0.002100630597431288
0.05987896692008147
0.08157538199121325
0.41666787134568695
0.560710465347818
0.030639295481346876
0.1976116563795031
-0.0018219586583976435
1.000150714851826
0.9188573578942301
0.4337794663039973
0.5682255443944926
0.6255135016189459
0.9386099609973376
0.05166712975488191
0.05053642045644226
0.9982354767185693
0.030802844379456247
0.5060719098105595
0.32902037046238114
0.11864762669403064
-0.000951615668094974
0.7915759221022858
0.9494221892453043
0.1452292060478528
0.12659522092728326
0.8527051596242532
1.0017586644058212
0.044813230398429826
0.9426176707069092
0.9419333851185027
0.4454940245031299
0.4427909343937872
1.0008874731561395
0.21408873017990548
0.33467116391925467
0.37554674716506947
0.0002728237974652538
0.967046270194096
0.9680027705356408
0.2445397681028899
0.59482343988394
0.8296984123929539
0.832506680489735
0.1892314875227879
0.8303147887090638
0.2357345189715931
0.8798191579171063
0.8785713501390721
0.619473252704361
0.893476682078609
0.6180088016087674
0.052016188548119874
0.9505283030493172
0.3940835673285309
0.6229883005428476
0.3767073759969886
-0.0074600109834154
0.31265159073851084
0.0568195618870956
-0.0005955572040578102
0.566209749828402
0.11637582470918871
0.22028069525362898
0.08609283442322511
0.8001786553555449
0.8740014883233963
0.9757727491478989
0.5845976931532489
0.0032485977083890815
0.40609112839530603
0.07765855827549815
0.999260338764613
1.0002849616504033
-0.001045865272445286
0.05792641378541046
0.9449644869616134
0.00037994319490829425
-0.004483773459206784
0.23490200987127183
0.7673673419781173
0.4368452738016443
1.0029550868154946
0.22710212061396
0.8179016151451418
0.19904436712410853
0.8079154698980371
0.19205514500774482
0.9787255206796738
0.0016758211130577612
0.41258025195863196
1.000885997255895
0.9584786224134022
0.04412733938048495

SCALARS Omega double
LOOKUP_TABLE default
-7.676404288882507
-1.1983582593684596
8.550356365986733
15.920545386701315
36.51200161451846
-6.4775828005582285
2.4231699549098495
-4.467003091062458
-0.42810789467611593
1.9246531033765484
0.049755333159438246
-0.6355057604757752
0.4829568736309163
1.141771013868385
0.20919385567446622
0.8255823030120452
0.5093797401038455
0.7912372512400275
1.5542080077381726
-0.10785864176723683
1.422592396362429
1.2568682488824747
-0.46867032516256274
0.49586411981168194
1.0737478010172916
1.0486970523331838
0.7478002497875417
0.23606631815582113
0.45242488356317434
1.4154991680122835
1.1057880055962033
0.14218180687683984
1.3330112378721621
0.8520170634863642
0.4184989105187023
1.1389366185159158
0.7584347081441016
0.3825483281981768
1.3392171960586545
0.6852663206535642
1.4098785017699953
0.713032645164244
0.42916148781112057
0.35981528081390024
0.962487432564286
0.741819261462012
2.189112493964351
0.4730939806675265
-0.5014583153405276
2.215846917633288
0.9001553913592737
1.9139085884982723
9.618418344851234
-7.7300546015232765
0.5043105135232681
2.7062493331301605
1.547907043119901
-0.08481979896256621
-0.9997165809204914
-2.4886310444988298
-3.176265035132814
-1.65955180631092
-0.2788861310356516
-0.6993801159980969
-1.093927265900343
-0.10854372173725597
-0.7331618846414755
-0.3766527275522794
-1.0786039509709298
-0.8254221348832169
-0.3047763642023818
-0.7180282552711984
-0.45424392753698994
0.12473155870733754
-1.783771453013424
-0.6418793027334118
0.40819074067414424
-1.509981427310387
-0.5980468971749896
-0.2830663091081282
-1.1358524683100653
-0.8201875348632742
-0.43053660649540887
-1.1361001688535675
-0.9166122795412951
-1.4704340857244869
-0.14129558235426448
-0.5567003212269364
-1.0116974761732613
-1.1297185294786496
-0.7557604621566265
0.7216564544078907
-1.4319294800863531
-1.2539168677182468
0.23013123446869477
-0.8627792853685703
-1.1220767568317458
-0.1435432985004461
-0.5460695699999213
-1.5214670315792143
-1.527898035688404
-0.3814529101232227
-1.9049970973412365
-0.4858442556743957
-2.070543691685801
-0.4993533062985424
-0.14126130669475936
-2.0693908570269217
-1.911248060887713
-0.8189934562245486
0.7510277172176152
-4.5927833900793775
2.6457929888167544
0.31200965318312696
-0.025429883438234102
-0.8569690679185696
1.6496881785099349
-5.888938953280145
-2.339683216540657
-42.60899827974111
-0.5155787657051965
0.4976589780064961
0.06772229940008585
-0.09185756111176407
-0.2945078777493994
-0.24285899612109985
0.1819841375903747
-0.3752062873990834
-1.7323075385383804
3.1110352506589796
2.6263985546393585
-2.710591099463307
-2.7758030463369994
-2.424248804104198
-2.6737073282358095
-2.0308542967576906
2.9608851857851626
2.9065762636537484
2.824692621757311
2.960296489073818
2.312988387279353
2.9083748717927995
-3.2740127469841442
3.871162221395705
-2.587757707051565
-3.9640760661700707
-3.937640022535357
5.2168001403371775
4.311125675186098
4.026940205240322
-4.705135885097071
-4.279507632715351
-4.219509809064528
-4.033202330774774
4.174525700283743
3.958190548843835
4.1929309898351494
1.966781775030035
4.573805145809682
-3.9717404274117034
-1.7026360163047618
-4.643732932847558
-4.997416854070351
-1.420787540553769
-0.17881268872762962
0.7303497528994217
-6.318148655018725
-5.456996436287098
5.039260636776305
-5.161619097797767
5.24811741161485
5.050647444619505
-1.2647152975885567
-4.8983655299646
0.18470974234354123
0.12816580173361863
0.10708571582077556
-0.1729952137181489
-0.010190437208463764
-0.1754436079546081
0.0653306936864466
-0.11808934944237603
0.09270107714897091
0.15771486177895055
0.24550791415684953
-5.658497183083835
5.439754966054976
7.333901066675234
-5.85760720634531
5.9244812086561245
5.922508964272486
6.154983750911112
-5.505324508791189
5.669650937973553
5.33657019495208
-5.637169105956505
-5.51498108753969
-6.42590923714793
6.575400706410354
5.7423686591338745
5.838362112846043
0.2981985010365524
13.255429245965551
5.660533839236031
-5.6266741197123835
2.225651935793017
2.2627081018404307
-2.3934128593236834
-5.450410009983257
-2.339925567856587
-5.9705510950475755
2.557984495965001
-2.4294342512554135
-2.381972096618358
-1.8290511697616725
1.970978774260268
2.1498706684904962
-5.635634561134944
0.08675048500666678
6.110723254788111
1.76664269822766
-2.20302667497928
-1.6642826018736732
2.2627718264884136
5.653841693904476
-1.827418390310093
-1.2691758405479168
0.6764110521919365
2.530640421661933
-6.107882646340607
-1.8685632211748906
-6.231333086581078
-6.234860848152644
-6.409044595186117
-1.8582153450170205
-6.297337521929125
-4.516874683038056
2.4800492635100015
-2.1386093552559204
-2.3773235427980466
2.520265631497094
2.238257537801638
-2.222073141766977
-1.4570951519378654
1.4542701244289151
1.570729773010678
1.6257266690304355
2.045444504421411
2.935442832908746
5.82347180985339
-6.571407896447762
-7.579735717481567
-6.638120179813692
-8.40674545072253
6.396723495745482
6.999869303391505
-1.566417155791505
6.743804643505243
-0.9138722729249518
-1.008231281740069
6.720713091122859
-5.504989682090527
8.098063473061915
6.010024191972609
-6.293476810614244
5.638361462129225
-2.112879579625694
5.729085256374165
7.16460680530868
-2.093012588828735
-8.522228825024964
-10.848468178171037
-8.804917162136508
6.70251889428034
5.910037676081106
-1.037330869254045
7.10773141518247
-2.1706862494525505
-7.964577934937148
2.152706101516738
-1.9274578048809061
-1.8829294130209593
23.70730980157365
-6.21871274293963
1.9963655590321636
-3.341628266783675
3.517060948656972
3.237773160381815
3.2023531347228475
7.554030388750929
1.6217075175437623
-8.322451399472524
8.561442046857715
6.971550574173652
-1.4499011155392192
-1.5506651333172212
-3.2857868015517853
6.754397151148321
-6.760865624017316
4.046992883048982
-1.931745751068285
-3.7616611755219056
-0.44514232364766426
-6.424995413541221
3.2824639156458413
7.646838591932101
5.5746269003572015
-4.143479390235109
-3.2061205859376507
-9.982485565953148
-0.41492602296085995
-8.307162645851298
-1.4068911235025745
-3.069429320726126
-8.680254335362896
-7.891604653699314
-0.8227624212099157
-0.5677916091543895
-0.790024087018638
0.7669206261776115
0.9085235104176276
-7.3900133047195276
1.3609450341196507
-9.29221956008418
1.9229764004926106
-4.044954406933186
-4.131608069515634
9.767251033539903
3.0942574424696847
-3.0900212110799785
3.115800578334328
-3.309803632674302
-3.081231468793218
3.2683964324945216
6.709706239995145
-6.505251406130066
-4.1248157942732595
4.0571029791872535
-4.042466753254878
-1.2802523836642556
1.0019620384516836
5.707338796286386
-9.334735385841642
-0.7054720334412321
-0.7235226532152681
1.0469730197415485
0.8788931366689973
0.7547509598696319
-6.704039775040765
-8.02226094398583
-3.864956504153498
4.061416846535327
3.9275654430931763
0.9663109028828438
-0.8409345481440309
-0.650642739051377
-9.054915540505897
0.8471021358560665
4.389282152948093
-3.9755644566708686
9.514326169207822
-3.0409547996841106
-0.4431571434625856
0.20156423406944213
-0.8284910048612061
3.8658592048679714
0.23649427752244745
8.557508510419252
-0.3462174635477762
6.7684486659860825
6.283830371518461
4.44222810334787
5.496377708036868
2.914059546143628
-7.850998777716267
-1.2875783365416669
1.9879372935262334
0.7172784564166562
1.6896104608116136
-1.879024676346114
-4.523093197440301
-10.002145737809984
-0.5616358038873132
0.7360503999915128
3.539986305048226
0.6937862859107258
-0.5491018111377846
-0.47443776091126466
5.482396084063115
4.906199521966866
-3.9662444524743714
-4.051794253269369
3.8941381430309665