# vtk DataFile Version 1.0
2D Simulation C++
ASCII
DATASET UNSTRUCTURED_GRID
FIELD FieldData 1
NODES 1 2 int
715 1308

POINTS 715 double
0.0 0.0 0.0
5.0 0.0 0.0
5.0 1.0 0.0
0.0 1.0 0.0
0.10000000149011612 1.0 0.0
0.20000000298023224 1.0 0.0
0.30000001192092896 1.0 0.0
0.4000000059604645 1.0 0.0
0.5 1.0 0.0
0.6000000238418579 1.0 0.0
0.699999988079071 1.0 0.0
0.800000011920929 1.0 0.0
0.8999999761581421 1.0 0.0
1.0 1.0 0.0
1.100000023841858 1.0 0.0
1.2000000476837158 1.0 0.0
1.2999999523162842 1.0 0.0
1.399999976158142 1.0 0.0
1.5 1.0 0.0
1.600000023841858 1.0 0.0
1.7000000476837158 1.0 0.0
1.7999999523162842 1.0 0.0
1.899999976158142 1.0 0.0
2.0 1.0 0.0
2.0999999046325684 1.0 0.0
2.200000047683716 1.0 0.0
2.299999952316284 1.0 0.0
2.4000000953674316 1.0 0.0
2.5 1.0 0.0
2.5999999046325684 1.0 0.0
2.700000047683716 1.0 0.0
2.799999952316284 1.0 0.0
2.9000000953674316 1.0 0.0
3.0 1.0 0.0
3.0999999046325684 1.0 0.0
3.200000047683716 1.0 0.0
3.299999952316284 1.0 0.0
3.4000000953674316 1.0 0.0
3.5 1.0 0.0
3.5999999046325684 1.0 0.0
3.700000047683716 1.0 0.0
3.799999952316284 1.0 0.0
3.9000000953674316 1.0 0.0
4.0 1.0 0.0
4.099999904632568 1.0 0.0
4.199999809265137 1.0 0.0
4.300000190734863 1.0 0.0
4.400000095367432 1.0 0.0
4.5 1.0 0.0
4.599999904632568 1.0 0.0
4.699999809265137 1.0 0.0
4.800000190734863 1.0 0.0
4.900000095367432 1.0 0.0
5.0 0.8999999761581421 0.0
5.0 0.800000011920929 0.0
5.0 0.699999988079071 0.0
5.0 0.6000000238418579 0.0
5.0 0.5 0.0
5.0 0.4000000059604645 0.0
5.0 0.30000001192092896 0.0
5.0 0.20000000298023224 0.0
5.0 0.10000000149011612 0.0
4.900000095367432 0.0 0.0
4.800000190734863 0.0 0.0
4.699999809265137 0.0 0.0
4.599999904632568 0.0 0.0
4.5 0.0 0.0
4.400000095367432 0.0 0.0
4.300000190734863 0.0 0.0
4.199999809265137 0.0 0.0
4.099999904632568 0.0 0.0
4.0 0.0 0.0
3.9000000953674316 0.0 0.0
3.799999952316284 0.0 0.0
3.700000047683716 0.0 0.0
3.5999999046325684 0.0 0.0
3.5 0.0 0.0
3.4000000953674316 0.0 0.0
3.299999952316284 0.0 0.0
3.200000047683716 0.0 0.0
3.0999999046325684 0.0 0.0
3.0 0.0 0.0
2.9000000953674316 0.0 0.0
2.799999952316284 0.0 0.0
2.700000047683716 0.0 0.0
2.5999999046325684 0.0 0.0
2.5 0.0 0.0
2.4000000953674316 0.0 0.0
2.299999952316284 0.0 0.0
2.200000047683716 0.0 0.0
2.0999999046325684 0.0 0.0
2.0 0.0 0.0
1.899999976158142 0.0 0.0
1.7999999523162842 0.0 0.0
1.7000000476837158 0.0 0.0
1.600000023841858 0.0 0.0
1.5 0.0 0.0
1.399999976158142 0.0 0.0
1.2999999523162842 0.0 0.0
1.2000000476837158 0.0 0.0
1.100000023841858 0.0 0.0
1.0 0.0 0.0
0.8999999761581421 0.0 0.0
0.800000011920929 0.0 0.0
0.699999988079071 0.0 0.0
0.6000000238418579 0.0 0.0
0.5 0.0 0.0
0.4000000059604645 0.0 0.0
0.30000001192092896 0.0 0.0
0.20000000298023224 0.0 0.0
0.10000000149011612 0.0 0.0
0.0 0.10000000149011612 0.0
0.0 0.20000000298023224 0.0
0.0 0.30000001192092896 0.0
0.0 0.4000000059604645 0.0
0.0 0.5 0.0
0.0 0.6000000238418579 0.0
0.0 0.699999988079071 0.0
0.0 0.800000011920929 0.0
0.0 0.8999999761581421 0.0
0.7496038675308228 0.5164291858673096 0.0
1.3451675176620483 0.5190238952636719 0.0
1.9462687969207764 0.4963642954826355 0.0
4.456614971160889 0.5060901641845703 0.0
3.864220380783081 0.4866538345813751 0.0
3.249823808670044 0.482722669839859 0.0
2.6500000953674316 0.5 0.0
0.3810288906097412 0.399004191160202 0.0
2.308779239654541 0.3797946870326996 0.0
1.0499999523162842 0.6625000238418579 0.0
1.644740104675293 0.6598879098892212 0.0
4.150000095367432 0.3375000059604645 0.0
3.555316209793091 0.3343118131160736 0.0
2.9446933269500732 0.3401789665222168 0.0
1.6342840194702148 0.3290160894393921 0.0
1.0591840744018555 0.33908534049987793 0.0
2.9654481410980225 0.6753292679786682 0.0
3.5534629821777344 0.6835107207298279 0.0
4.153462886810303 0.6835107207298279 0.0
2.2139804363250732 0.6805098056793213 0.0
0.4914395809173584 0.6739721894264221 0.0
4.691666603088379 0.6916666626930237 0.0
4.691666603088379 0.3083333373069763 0.0
2.4872219562530518 0.7236665487289429 0.0
0.6240421533584595 0.2677222192287445 0.0
2.0697431564331055 0.2657754421234131 0.0
2.5389034748077393 0.26082900166511536 0.0
0.8147311806678772 0.7450684309005737 0.0
1.2897310256958008 0.743314266204834 0.0
1.8853894472122192 0.7450258731842041 0.0
4.382374286651611 0.23655959963798523 0.0
3.910269021987915 0.25668570399284363 0.0
3.1838724613189697 0.25397706031799316 0.0
1.398239254951477 0.2614254057407379 0.0
3.201760768890381 0.7385746240615845 0.0
3.8017609119415283 0.7385746240615845 0.0
4.39177942276001 0.7466779351234436 0.0
0.25301694869995117 0.7458874583244324 0.0
2.7258167266845703 0.7600342631340027 0.0
0.84163498878479 0.2263137847185135 0.0
0.22429518401622772 0.22429518401622772 0.0
2.7605957984924316 0.22504857182502747 0.0
1.8330284357070923 0.2150011658668518 0.0
0.2192869633436203 0.5323538780212402 0.0
4.7908525466918945 0.5038931369781494 0.0
2.466000556945801 0.5376454591751099 0.0
3.7061264514923096 0.17723728716373444 0.0
3.3929696083068848 0.20266839861869812 0.0
1.4905184507369995 0.7937026619911194 0.0
1.2104878425598145 0.20361483097076416 0.0
3.9895122051239014 0.7963851690292358 0.0
3.389512300491333 0.7963851690292358 0.0
0.5652223825454712 0.5070380568504333 0.0
0.44509074091911316 0.19716571271419525 0.0
2.1318352222442627 0.5042122602462769 0.0
1.548349142074585 0.4954715371131897 0.0
3.050636053085327 0.5004673004150391 0.0
0.9511125087738037 0.498258113861084 0.0
3.651650905609131 0.5045284628868103 0.0
4.248488903045654 0.4980509281158447 0.0
1.1537858247756958 0.49593159556388855 0.0
4.050199031829834 0.49993085861206055 0.0
3.464722156524658 0.509624183177948 0.0
1.749653697013855 0.5001751780509949 0.0
2.851828098297119 0.5057260394096375 0.0
2.359710216522217 0.1888567954301834 0.0
2.0499017238616943 0.8199846148490906 0.0
0.6430503129959106 0.8181284070014954 0.0
4.560274600982666 0.1724673956632614 0.0
4.55863094329834 0.8299665451049805 0.0
2.321284055709839 0.8242537379264832 0.0
4.815218925476074 0.8345447778701782 0.0
4.837246894836426 0.16590170562267303 0.0
0.9682294130325317 0.8331464529037476 0.0
1.730908751487732 0.827606201171875 0.0
4.220076560974121 0.17516615986824036 0.0
3.02066969871521 0.18326662480831146 0.0
1.5634372234344482 0.17044226825237274 0.0
3.035303831100464 0.8294908404350281 0.0
3.627507209777832 0.8360387086868286 0.0
4.2312469482421875 0.8315803408622742 0.0
4.618130683898926 0.5361976027488708 0.0
0.40311703085899353 0.8369210362434387 0.0
1.1473191976547241 0.8458209037780762 0.0
4.052680969238281 0.15417908132076263 0.0
2.020958423614502 0.6394158005714417 0.0
0.662188708782196 0.6447370648384094 0.0
4.5115838050842285 0.3538685142993927 0.0
1.0221220254898071 0.15309639275074005 0.0
0.3837882876396179 0.5515117049217224 0.0
3.548090934753418 0.15800617635250092 0.0
1.4348299503326416 0.6465393304824829 0.0
3.765170097351074 0.3534606993198395 0.0
3.3348300457000732 0.3534606993198395 0.0
1.2546738386154175 0.36384353041648865 0.0
3.945326089859009 0.636156439781189 0.0
3.3412928581237793 0.637225866317749 0.0
2.1904795169830322 0.17066854238510132 0.0
0.16392111778259277 0.38331863284111023 0.0
2.87723445892334 0.8265392184257507 0.0
4.8459792137146 0.6499902606010437 0.0
4.845625400543213 0.34837812185287476 0.0
2.771622896194458 0.38129922747612 0.0
4.5222978591918945 0.6578375697135925 0.0
2.604464530944824 0.8240283727645874 0.0
1.8544400930404663 0.3751189708709717 0.0
0.8566747903823853 0.38255012035369873 0.0
2.2932615280151367 0.5369129776954651 0.0
2.620572805404663 0.6496497392654419 0.0
0.7172287106513977 0.1490369737148285 0.0
0.1410960853099823 0.8303417563438416 0.0
1.7142322063446045 0.142862930893898 0.0
2.6314175128936768 0.14492936432361603 0.0
1.9832650423049927 0.1408119648694992 0.0
2.445650577545166 0.370038241147995 0.0
2.885042667388916 0.1455758661031723 0.0
0.13937503099441528 0.6546638011932373 0.0
0.9110832810401917 0.6349053978919983 0.0
3.088575839996338 0.3613528311252594 0.0
4.296638011932373 0.3563385307788849 0.0
1.1930090188980103 0.6355591416358948 0.0
1.788455843925476 0.6387236714363098 0.0
4.006990909576416 0.3644408583641052 0.0
1.4459187984466553 0.39242905378341675 0.0
4.354081153869629 0.6075709462165833 0.0
3.7540812492370605 0.6075709462165833 0.0
3.1591691970825195 0.6018876433372498 0.0
2.7615907192230225 0.6205627918243408 0.0
2.36276912689209 0.6735464930534363 0.0
1.3681535720825195 0.8630191683769226 0.0
3.8318464756011963 0.1369808316230774 0.0
3.275517463684082 0.10712132602930069 0.0
0.5630941987037659 0.12814241647720337 0.0
1.3237862586975098 0.10638008266687393 0.0
3.2733232975006104 0.8705052733421326 0.0
3.8733232021331787 0.8705052733421326 0.0
2.0396511554718018 0.38928428292274475 0.0
2.2168734073638916 0.8508136868476868 0.0
0.5163488388061523 0.3409615159034729 0.0
0.6547463536262512 0.3955095112323761 0.0
1.9480526447296143 0.8710126876831055 0.0
4.689375877380371 0.13700176775455475 0.0
4.698264122009277 0.8675068616867065 0.0
0.7578787803649902 0.8698469996452332 0.0
2.479548454284668 0.13692785799503326 0.0
2.4562506675720215 0.8735422492027283 0.0
2.171211004257202 0.3573116958141327 0.0
3.5117530822753906 0.853193998336792 0.0
4.107914924621582 0.8658969402313232 0.0
2.640726327896118 0.354434996843338 0.0
4.346996307373047 0.1279495507478714 0.0
0.3128283619880676 0.11246757209300995 0.0
0.136248379945755 0.12152919173240662 0.0
4.453908443450928 0.8629162907600403 0.0
1.6064813137054443 0.8679171800613403 0.0
0.3380795121192932 0.6626779437065125 0.0
0.5102446675300598 0.875635027885437 0.0
0.7425088882446289 0.2989330589771271 0.0
3.1349449157714844 0.10448489338159561 0.0
1.3287748098373413 0.6181886196136475 0.0
3.871795415878296 0.38215625286102295 0.0
3.229135036468506 0.3810797333717346 0.0
0.28971707820892334 0.8759857416152954 0.0
0.9214505553245544 0.11992674320936203 0.0
1.9219478368759155 0.6237660050392151 0.0
1.530794620513916 0.29603153467178345 0.0
3.072223663330078 0.7044162750244141 0.0
3.6722235679626465 0.7044162750244141 0.0
[...]
POINT_DATA 715
SCALARS Psi double
LOOKUP_TABLE default
0.0
0.0
1.0
1.0
1.0
1.0
1.0
1.0
1.0
1.0
1.0
1.0
1.0
1.0
1.0
1.0
1.0
1.0
1.0
1.0
1.0
1.0
1.0
1.0
1.0
1.0
1.0
1.0
1.0
1.0
1.0
1.0
1.0
1.0
1.0
1.0
1.0
1.0
1.0
1.0
1.0
1.0
1.0
1.0
1.0
1.0
1.0
1.0
1.0
1.0
1.0
1.0
1.0
0.9071824471001636
0.832996036345071
0.7271016087487229
0.6100855744421048
0.48738361667435154
0.3632281540975177
0.24062236029402484
0.12452446588868755
0.037196162472077965
0.0
0.0
0.0
0.0
0.0
0.0
0.0
0.0
0.0
0.0
0.0
0.0
0.0
0.0
0.0
0.0
0.0
0.0
0.0
0.0
0.0
0.0
0.0
0.0
0.0
0.0
0.0
0.0
0.0
0.0
0.0
0.0
0.0
0.0
0.0
0.0
0.0
0.0
0.0
0.0
0.0
0.0
-0.0
0.0
0.0
0.0
0.0
0.0
0.0
0.0284109968679793
0.11399482995067496
0.22094868047982136
0.32901239989526226
0.4361021357957026
0.5379154373393868
0.6286808071200184
0.6982829734640871
0.6505459200666031
0.5171148316285433
0.5215713289830252
0.4945724995838971
0.5008322494016321
0.47523640254051247
0.4755543404037517
0.5035141342020796
0.3482218233650417
0.3448578942980246
0.7079751453915787
0.7038202472406447
0.2822311376671767
0.2743390147186842
0.2963938666146451
0.2752804864694679
0.2901634560093734
0.7355952260669785
0.7300978285143975
0.7321243232170423
0.736727686572527
0.7167925046792603
0.7350623404499731
0.24784283865058576
0.7924206984548018
0.1979004364298429
0.19697458333399762
0.19104312612576002
0.8115156428449285
0.8147640462572099
0.8158714812754096
0.14683952897801342
0.17786417340430838
0.1780104495244663
0.18459821909964969
0.8133326932421803
0.8057114564413131
0.8172561341157483
0.7778584999588755
0.8446201878778703
0.15094990019411306
0.1276041423352002
0.14601260028790505
0.12824276428913842
0.4918828026729409
0.49408096112339384
0.5512721493548671
0.06693284315023068
0.10259584436960012
0.8770537143405813
0.10602647362763103
0.8757541221149278
0.8753058598180167
0.49919663019333027
0.09983355471493204
0.5062254816922671
0.4908520507515566
0.5035756697455224
0.4955421356771902
0.4976697814000918
0.4908227865112119
0.4921988923640067
0.49314619967276413
0.505702662501777
0.4979745021399531
0.5120450871915684
0.09413442722316125
0.9151471333234099
0.9124587827282596
0.07596998183674311
0.9207561600535539
0.9243816409708332
0.9063200101059695
0.0705010091705906
0.92347526539144
0.9192900707159094
0.07294423938105248
0.093486359924557
0.07154491170132583
0.9391816955032716
0.9265680629291552
0.9249487037992776
0.538060972124381
0.9411914761916111
0.9446287748296852
0.0517092851514521
0.6810479519125199
0.6824373229327515
0.303665656123269
0.05793161080218768
0.5418857291613906
0.048574895274667254
0.6870211125384544
0.30007813115326065
0.304035728651474
0.31926119559865607
0.6700610889865178
0.6742417383293842
0.07531260491320614
0.31425144016667245
0.9354570560625131
0.6746496634886779
0.29836831113314416
0.3494772650642692
0.6974808382655091
0.9255665178776279
0.33663966245723265
0.3473781412039122
0.5495854488036429
0.6984850501069355
0.058454667161981846
0.8243650136383097
0.044922820704859825
0.044749493877421005
0.04325550972207133
0.3328321078439395
0.05106032645072678
0.611389145261082
0.6710021468810377
0.3211798528736926
0.30581512539369704
0.6740761414480627
0.6774986460939272
0.31732384217356735
0.35650436734186325
0.6338165183833293
0.6328439408416052
0.6344140434072248
0.6620620686982155
0.7275084810889325
0.9585795897480908
0.03262110196717174
0.0003627664653033016
0.03274409927335187
0.0008847527009346874
0.9672281222421324
0.9664897424107605
0.3563643762490812
0.9560239269260675
0.28443622702412624
0.3599670896084117
0.9709433268561394
0.04123237621073152
0.9589911422184958
0.9637553713183121
0.037735954846469605
0.9716598093235953
0.31532294175415726
0.9407219753237327
0.9584179506770676
0.31333448021362714
0.015772524751650845
0.01035090394193203
0.023527662414307118
0.9614867141929079
0.9603511620832079
0.6829785842900997
0.9798309597857465
0.24032725648207695
0.00251388313635094
0.6509403246720198
0.3392516006039366
0.34310678624492247
0.9917111898755753
0.03342750521683129
0.6594483351519653
0.2314335919345013
0.7728595547398354
0.7585946636062599
0.760655975012902
1.0157583250589217
0.6403158475623809
0.011342573757317643
0.9854807275477405
0.990070367252992
0.1828858031447912
0.37369456950369795
0.23549856740840613
0.9955537871339959
0.0036335241668007234
0.8093999502232468
0.34082470824921635
0.16920527488431572
0.3663528250087784
0.018142217656978602
0.1708098832470296
0.9841535993255769
0.9764762016576092
0.17701428010347836
0.2428672737285313
-0.00517368954518793
0.450414859283607
-0.012283482114608132
0.43010402820435445
0.2482601381492987
-0.007665300269069978
-0.003770570801042413
0.43236825793651457
0.44294554437351424
0.43072062543958584
0.5583765098908987
0.5605912298054001
0.005455486468616458
0.5484608911060119
0.003510576050782572
0.6488053044590937
0.18205791700312812
0.6218488265681553
1.001559262489047
0.7476603257910345
0.21760971321435735
0.7421673374291884
0.23771843044412963
0.25228092124011137
0.7490436206820003
1.0016326260890147
-0.0033268105309888036
0.18710865318905728
0.8005681167652113
0.18907810060632885
0.35369855332233213
0.5982632932607657
0.7782282113826485
0.18367601246140214
0.4210825827599089
0.4221441497510024
0.5840186224712344
0.5719549719251101
0.5721703799697275
0.035547151850132186
0.6792831804761429
0.1857223156836472
0.8061130819776019
0.802389839460546
0.5614206234334973
0.4290015006433556
0.4397625920749821
0.0025072855833370186
0.5615476923953985
0.7997270742532006
0.19249469895981883
1.0101812895769415
0.24782690579293803
0.5566276882712978
0.6283960881682822
0.43504767315037884
0.802269177427766
0.5530178767646848
0.9944506758953334
0.4577119943886987
0.9739261876148876
0.9733055043127034
0.8349031413335442
0.799626341230198
0.9459998604474686
0.020258422985101127
0.44421737568459174
0.6608467824829765
0.5534824849324388
0.6377548463410089
0.4099902918011289
0.16004923527334702
-0.0020991065987018324
0.4578731054607857
0.2328835110103499
0.7787358085067967
0.5383618200896081
0.45259852911882364
0.45649039383435236
0.7875352856692955
0.8044148210868673
0.19475059877081513
0.18128496049403348
0.8058858927852383
0.4258937920028076
0.9991196802706576
0.18237711939419907
0.848383344952299
0.8537537779577232
0.38760271746436425
0.8680206932267427
1.0116449308619382
0.1756963629458816
0.21062301504571485
0.6400840354326128
0.35383368333098786
0.6357515615811173
0.6470087997578561
0.13229143470664448
0.6215707790015136
0.3677219658145255
0.368083775484735
0.007863685191942775
0.4766350307343441
0.3007989467007974
0.6874562669329594
0.711390523593274
0.3686084618519454
0.8169982942551117
0.6263512890390039
0.6262173006005445
0.6099726366090066
0.014333803548726511
0.015908124366125653
0.2030619831855823
0.7707091012879944
-0.006717448099793162
0.8601213695077583
0.8651133610750605
0.792828354017464
-0.006635294233733906
-0.007973170609592984
0.22474011553227582
0.37137515728612724
-0.005465320701523932
1.0062686447690403
0.3613358400988216
0.8355376786717265
1.0081208903363783
0.8157087540277592
0.175200012628688
1.0141399278343595
-0.005822702617055515
0.15181691625575017
0.9890959069132055
8.807405164868983e-05
0.3437222752150947
-0.001591679080784834
0.6550459294261028
0.005469497132904509
1.0048056759856039
1.009682099858296
0.16142781843464363
0.5206493606646575
0.20460993727498364
0.9979911235508448
0.8259442078882868
0.9988897946908015
0.3782713718729169
0.9977348037066883
1.0107071933074303
0.17669288489442223
0.13453051192400778
-0.007047942617568602
0.33597963067217906
0.610896794826941
0.5795506882777504
0.41976952699422554
0.5476554167139761
1.0110677354677076
0.2697158849903429
0.5605827069521728
1.006427664226183
-0.006225931793377473
-0.003646734312948771
0.23560043301794645
0.4317622999324185
0.5559319017189366
-0.0007624965267047335
0.8737943153401518
1.0137981571542745
0.8426763726180264
0.1383268215929175
0.8654754632981395
0.8534591891192432
0.6001381015747708
0.1355231733814936
0.8452459432792055
-0.010800287185300437
0.3221806466627605
0.0018691630832345853
0.8851629728469534
0.11043387706708495
-0.008727973886245539
0.5653044884737009
0.5590197404784574
1.0113669962788772
1.0157146718104526
1.0038574115166894
-0.002095218980297971
0.44227796544351466
0.6285557230431981
0.634041298890728
0.633429361203041
0.3610100830298656
0.3573307292075145
0.36670381895642545
0.8997350832635177
1.0217243395498143
0.9942846170488898
0.9870630623373202
0.930839361813311
0.6649794721757646
0.7002275097473637
-0.00882837790087837
0.09673669009663914
0.7318489599660852
0.669907841417532
0.2997652730593354
0.8779271894715818
0.13425564011323107
0.11881793045741998
0.6680170261994363
0.5918218849472311
0.4389976409124046
0.9952228804841823
1.0048574441522284
0.7243923118598732
0.1398191339213744
0.8842120613582433
0.2640961639094547
0.9123648978496457
0.08595061296656104
1.0021418870647083
0.002853555108787116
0.3915533828090891
0.5944932312717184
0.3888266676264438
0.7860304042865188
0.07720771143061891
0.5651389249809988
0.4006045205738682
0.7733234283030322
-0.006920417884455265
-0.013116672726082433
0.20311778990893412
0.23272888878011522
0.09225548512386555
0.1541964903668146
0.8925235057909349
0.7758109049464132
0.21696314981665799
0.7324497508929096
0.2611158239974352
0.8843484366239975
0.8483450529871042
0.8446695924462647
-0.015694151576538702
0.8978295774531263
0.3829483504592465
0.26689629288335376
1.0056194233851907
0.22163145466112838
0.5432935933109634
0.6746332315566387
0.5816150888782862
0.6053971019658505
0.07414611789769522
0.9175995288232462
0.9135153520999166
0.1073100920416627
0.7090466773288586
-0.013825192083860738
1.0121905768948696
1.012004494308534
0.06699171974716121
0.09370622923427063
0.8619721907660522
0.28760875047318407
0.911077475107304
0.4712322476538809
0.7991675107844356
-0.001919140197849203
0.601385140667163
0.3852786530049451
0.3933737388124194
1.0045531824619265
-0.007636611330275344
0.5857118084595265
-0.010511572629567
0.4215933119588968
0.10041503461136983
-0.005050132295440652
0.2868633795221239
0.5929186653792767
0.7372850317222195
0.7231920060887336
0.9095278109178636
0.08430728440530345
0.28863526293331665
0.2447656622304091
0.7040903145475648
1.0096042858800665
0.27088391733002826
0.1094434498169162
0.24739010760506
0.08557416277750075
0.8790071098112257
0.08338786332375246
0.25639800918046046
0.7344789986627236
0.7333368845455696
0.7436779031149431
0.41620849340454646
1.0112961714462432
0.40523054884855747
0.8658049441543
-0.005926008944383534
0.08863580564145583
0.06788791449494376
0.5720041366284723
0.11247710064471772
-0.0023966771421478524
0.06415852445672302
0.10256579074824998
0.4289337552527991
0.5517705016494674
0.05438174192931621
0.24555514459263694
-0.005628513011952291
1.0043288972368694
0.8548056380010994
0.4383878944164469
0.5516553619455484
0.5963220653043134
0.8915629510404359
0.08704143489879589
0.08584258995154126
1.0001797563697925
0.0521500102765978
0.5342208289272742
0.3591621578841029
0.15986048273646805
-0.008148165291998069
0.7324290907910637
0.90269478762657
0.19943520029350567
0.17889065442556165
0.7879783718973995
1.0092107594856066
0.07206664027846606
0.9026083981761998
0.9013011187276092
0.45176609088772196
0.4507035827276025
1.0076917098458096
0.25405588096252546
0.35470356564816174
0.4058919765775977
-0.0067584723077983855
0.9376263521678914
0.9384073058119407
0.27138613794761973
0.5730604614462849
0.7740558900149971
0.77458951637274
0.2327712610398675
0.7697346408456531
0.2811467801639148
0.8220865699505463
0.8253963657489066
0.5816654335161047
0.8416498617554813
0.5852172729152719
0.08635053337612217
0.9074817012095093
0.41560709403971813
0.5834885423518757
0.40436547155409297
-0.014991091853016756
0.342201419319495
0.08359284048638808
-0.005356333478935091
0.5552933018102402
0.16580973405235058
0.2591370505497413
0.09506494832252975
0.732967234745952
0.8136135355400266
0.951466087913124
0.5643099611509043
0.0037721313797088323
0.4350306344535149
0.11316504788073883
1.001043298379179
1.0015237568436763
-0.005818291577575964
0.08115848116372257
0.9119520026027589
-0.0023230531293711013
-0.011700484532340122
0.2865623190359028
0.7046398392885519
0.4627572718497895
1.0034327486043446
0.2910535966847801
0.7578607112820542
0.2524173796235976
0.7432842236008028
0.2465270837001954
0.9772657744012442
0.00278600934037186
0.4260577977551725
1.0085257066653814
0.9244680151945806
0.07795034857468214

SCALARS Omega double
LOOKUP_TABLE default
-7.464916594453533
-1.6360899488558147
8.899166212741436
15.928451314469745
35.9969452181367
-3.154921332265062
4.671041118945162
1.0370565536018044
1.9464902495077216
6.681894566221466
1.386202759437591
-0.3518976800057483
1.8825324313640595
4.360196444684193
1.571908911357207
2.0487854725223884
1.8465399657210602
1.668049782646371
4.2277710652058325
0.5321577731609877
5.134778086548593
3.234010093307358
-0.9137003104233825
1.8593257993998646
3.53005247302598
2.6752643497237036
2.7143369357179186
0.26509190086686457
0.7017261611838035
4.219676550010593
3.3028615591179795
2.515331887262819
3.0911812089413173
1.9963219224485218
1.2828530650777072
2.214758251465082
2.130026458941305
1.1904083917708965
3.905682012258583
3.4429448936860383
3.0862005243463018
2.168006337064183
1.8369991963038788
1.6100843302986045
2.3875487230088095
3.026570100981164
4.726631865548231
1.212935524298964
-0.08986112091170362
6.048662489784289
2.7481452402210116
5.421071611160997
11.991096889516125
-6.226727929243424
0.043724337335273596
1.0466875428526607
0.6772140100490784
-0.04246644838720112
-0.15548802656300761
-0.48564438887829076
-1.2164023407702753
-3.0652640392092443
-1.9918438769157687
-4.503859200724015
-2.672793672048781
-1.3187652230243092
-3.359895939799925
-1.6381044024573366
-2.142558165983744
-2.9228945826230768
-1.1101981618501844
-1.9033945357755457
-1.2725968527367861
0.519144025653304
-3.82805962412973
-0.9833511423596525
0.12086389584056795
-4.258409157185045
-2.46374562714359
-0.2297139621330456
-4.020897582174342
-3.0050888531709643
-2.1003174583385547
-2.9219446065593613
-2.3252033075196197
-3.151909812402917
-0.07867973269664391
-1.0066266729654954
-3.429109257376247
-3.1248522386164916
-1.8461387058296308
0.6091399542004727
-2.8416941622606577
-2.5864531266818926
-0.09875477672878805
-1.9190417480910784
-2.8034984594858177
-1.2776144866500017
-1.9655850507974588
-3.985272102770765
-3.1216491885483286
-1.6415490313761827
-3.8395740923961594
-0.4464169176165467
-4.430789225066037
-0.9202528175570377
-0.3686171546827823
-4.651932574580732
-3.2347054068891334
-1.1134685336211707
0.6395594810800083
-4.417348083335647
2.415907036802245
0.13682778777362015
-0.24752457517973675
-0.8582504675765656
1.0695174598176262
-5.890067488108888
-1.752036076114851
-40.75522022293076
-0.00015720704617754624
-0.0016804988499033063
0.0024771525471569337
0.0007862168090787173
0.0014042297380522256
0.0008164708757244893
0.00029951695494949
-0.048650186342000704
-0.02622870217305574
0.07765418720573604
0.025193930901326794
-0.021062754867092644
-0.051508870644649256
-0.03723867932544295
0.05127320519473432
-0.06865912719139551
-0.11244382597782833
0.04061399912808484
0.0028108268263559557
-0.07604370890640114
-0.03905875803049513
0.0120424994420438
0.002040947380210455
-0.14656221416119514
0.16017998745688475
-0.03300305733459272
0.16563430820657907
-0.041099143052992254
0.06598215643509157
-0.23861464934381948
0.1257117764246071
0.17450240847009266
0.2833251339834435
0.2568408846343693
0.0353352005427085
-0.08232638156457785
-0.10355779830549365
0.0721907699511412
-0.3828075523972524
-0.2312813192076171
-0.01707175467106305
0.09223952582399493
0.2049428160878603
-0.10527571085518597
-0.013571793341643644
-0.0002262308338346791
-4.587386982199011
0.3644601284719039
0.070937187609973
0.47897781191856426
0.36755130680321546
0.3984686242574852
-0.0002628839660451428
-0.4374062912659819
-0.007477264410932003
-0.001337210212289807
-6.735476425300496e-05
-0.00206786697222931
-0.00016487635130203612
-0.001149530605343587
0.0004090935117699796
0.000567857267515437
0.0041792744955723065
-4.417042548140709e-05
-0.005574832234147207
-0.4321493557085691
1.388530939748099
1.102041039935313
-1.2007812550143258
1.4053267289694447
1.9198077260832829
1.9025176335234635
-2.0524069578022184
1.6770357512900316
1.6215472176760788
-2.039968432896749
-0.39740218858113024
-3.5931950963910757
4.925391656238476
1.152410770117075
1.9075114747144521
-0.008117591142304727
5.1246546809857465
4.051015371950406
-4.327044713092904
0.02378375821295958
0.0304945054918403
-0.02911120530265067
-1.8569236631837382
-0.017884897336258934
-4.575021020404556
0.03232936856939751
0.0014600334410486743
-0.07334944337583052
-0.029770466929599722
0.03335420508467997
0.03268764919317932
-1.9478651147065407
-0.14766204869491564
2.639872280155325
-0.08256427603188826
0.07387031165602644
-0.010000340823021491
0.04410053740718227
1.689875575867769
-0.017835447595197583
-0.005170008540021575
-0.00046474544613287025
0.04088728869794805
-4.429937909257902
-2.3832119467771786
-5.826201049404803
-5.357052902208944
-5.714988473940851
-0.029628645429494907
-2.943814863582445
-1.3276612539453
0.01837882826088038
-0.028906636610398724
-0.05662268161079164
0.059415574041303036
0.025381569120599128
-0.025961792941573643
-0.0015466889248396938
0.02054249730477997
0.003938130497041195
0.006614385471914126
0.034860493031727016
0.02777564482586695
5.892473209974259
-7.416116484292046
-14.070825087309675
-6.749994119456219
-14.171743379748357
8.62008911773706
8.859976890245076
-0.004956000276154329
6.855319884763664
-0.05233013158092221
-0.008192394575694968
8.562199475834033
-4.95602662427554
8.704697398286175
6.159217384263151
-5.811708410078374
7.280854143586854
-0.015619265371757523
3.2438314814294342
8.078514313054658
-0.03143203317652177
-11.3957285542342
-12.370940829682812
-9.184579944245288
6.1942896289180895
6.86035143553652
-0.14727930669120198
10.77775594408349
0.022227504555661876
-15.091624519098024
0.010248449955739765
-0.001292385138081203
-0.002266587245399914
17.5873416972854
-6.543647978230382
0.005747791394116627
0.10876425456994794
-0.13817522299897714
-0.027346153158940997
-0.07996879030097945
18.604459558381613
0.006226270994464356
-11.607637948554387
11.677193999935286
10.91865751091523
-0.06444853179986405
-0.00930691285661731
0.054526910731600375
14.52120417234805
-13.57273407998189
-0.48516923255984123
-0.021251964457796542
-0.13423060766905526
-0.10958475363270333
-10.128496788888398
1.940399113432313
12.749047020694473
9.130020418226731
0.09525359112925347
0.033469881347617844
-16.857694000236126
0.003161458786784145
-18.840581400963035
-0.9286950293178442
-0.018072539169843204
-15.7735418132953
-16.299259847998083
0.004102455871676537
0.006010659891272456
-0.0035040737770879885
-0.010027563746989808
-0.0017546451418909911
-14.139531965670693
0.22870048249109406
-14.980613777393863
0.013229613425887037
0.13770496075949087
-0.45889862079047816
16.410873910085858
-0.03751704022032792
0.1380380984921837
-0.01749223411327416
0.1467590759867447
0.046382864795919895
-0.13823588188211425
17.219522070741295
-15.685942555233881
0.17563190657600342
-0.10453100764465954
0.30687027903224195
0.007131208470305554
0.0036458195722030833
0.6068739599164181
-0.7512577648637494
0.0008696695079910508
0.012640911933812204
-0.0006140359556246836
-0.0011162051606883386
-0.00013403393363998692
-6.7777407869115045
-4.085231258284111
0.3276487963417845
-0.12211631634889325
-0.14041414056727786
-0.002928134925593914
0.004290159784697249
0.004253448672834551
-16.81038560341031
-0.003988139872569981
-0.12395690364629128
0.14485956969424846
16.85450419195233
0.04546507388807431
-0.0026765697470848408
0.000879375835474318
0.00734695306850398
-0.08345329369504745
-0.0036662618717673385
15.066085977876192
0.002609565427300258
9.131573711095992
8.44383095557707
-0.1499985558221432
-0.06787235131761184
4.874197059419679
-11.460070947324684
0.0029703771439191715
0.03576325024381834
-0.00693371637742241
0.045905275958614246