# vtk DataFile Version 1.0
2D Simulation C++
ASCII
DATASET UNSTRUCTURED_GRID
FIELD FieldData 1
NODES 1 2 int
715 1308

POINTS 715 double
0.0 0.0 0.0
5.0 0.0 0.0
5.0 1.0 0.0
0.0 1.0 0.0
0.10000000149011612 1.0 0.0
0.20000000298023224 1.0 0.0
0.30000001192092896 1.0 0.0
0.4000000059604645 1.0 0.0
0.5 1.0 0.0
0.6000000238418579 1.0 0.0
0.699999988079071 1.0 0.0
0.800000011920929 1.0 0.0
0.8999999761581421 1.0 0.0
1.0 1.0 0.0
1.100000023841858 1.0 0.0
1.2000000476837158 1.0 0.0
1.2999999523162842 1.0 0.0
1.399999976158142 1.0 0.0
1.5 1.0 0.0
1.600000023841858 1.0 0.0
1.7000000476837158 1.0 0.0
1.7999999523162842 1.0 0.0
1.899999976158142 1.0 0.0
2.0 1.0 0.0
2.0999999046325684 1.0 0.0
2.200000047683716 1.0 0.0
2.299999952316284 1.0 0.0
2.4000000953674316 1.0 0.0
2.5 1.0 0.0
2.5999999046325684 1.0 0.0
2.700000047683716 1.0 0.0
2.799999952316284 1.0 0.0
2.9000000953674316 1.0 0.0
3.0 1.0 0.0
3.0999999046325684 1.0 0.0
3.200000047683716 1.0 0.0
3.299999952316284 1.0 0.0
3.4000000953674316 1.0 0.0
3.5 1.0 0.0
3.5999999046325684 1.0 0.0
3.700000047683716 1.0 0.0
3.799999952316284 1.0 0.0
3.9000000953674316 1.0 0.0
4.0 1.0 0.0
4.099999904632568 1.0 0.0
4.199999809265137 1.0 0.0
4.300000190734863 1.0 0.0
4.400000095367432 1.0 0.0
4.5 1.0 0.0
4.599999904632568 1.0 0.0
4.699999809265137 1.0 0.0
4.800000190734863 1.0 0.0
4.900000095367432 1.0 0.0
5.0 0.8999999761581421 0.0
5.0 0.800000011920929 0.0
5.0 0.699999988079071 0.0
5.0 0.6000000238418579 0.0
5.0 0.5 0.0
5.0 0.4000000059604645 0.0
5.0 0.30000001192092896 0.0
5.0 0.20000000298023224 0.0
5.0 0.10000000149011612 0.0
4.900000095367432 0.0 0.0
4.800000190734863 0.0 0.0
4.699999809265137 0.0 0.0
4.599999904632568 0.0 0.0
4.5 0.0 0.0
4.400000095367432 0.0 0.0
4.300000190734863 0.0 0.0
4.199999809265137 0.0 0.0
4.099999904632568 0.0 0.0
4.0 0.0 0.0
3.9000000953674316 0.0 0.0
3.799999952316284 0.0 0.0
3.700000047683716 0.0 0.0
3.5999999046325684 0.0 0.0
3.5 0.0 0.0
3.4000000953674316 0.0 0.0
3.299999952316284 0.0 0.0
3.200000047683716 0.0 0.0
3.0999999046325684 0.0 0.0
3.0 0.0 0.0
2.9000000953674316 0.0 0.0
2.799999952316284 0.0 0.0
2.700000047683716 0.0 0.0
2.5999999046325684 0.0 0.0
2.5 0.0 0.0
2.4000000953674316 0.0 0.0
2.299999952316284 0.0 0.0
2.200000047683716 0.0 0.0
2.0999999046325684 0.0 0.0
2.0 0.0 0.0
1.899999976158142 0.0 0.0
1.7999999523162842 0.0 0.0
1.7000000476837158 0.0 0.0
1.600000023841858 0.0 0.0
1.5 0.0 0.0
1.399999976158142 0.0 0.0
1.2999999523162842 0.0 0.0
1.2000000476837158 0.0 0.0
1.100000023841858 0.0 0.0
1.0 0.0 0.0
0.8999999761581421 0.0 0.0
0.800000011920929 0.0 0.0
0.699999988079071 0.0 0.0
0.6000000238418579 0.0 0.0
0.5 0.0 0.0
0.4000000059604645 0.0 0.0
0.30000001192092896 0.0 0.0
0.20000000298023224 0.0 0.0
0.10000000149011612 0.0 0.0
0.0 0.10000000149011612 0.0
0.0 0.20000000298023224 0.0
0.0 0.30000001192092896 0.0
0.0 0.4000000059604645 0.0
0.0 0.5 0.0
0.0 0.6000000238418579 0.0
0.0 0.699999988079071 0.0
0.0 0.800000011920929 0.0
0.0 0.8999999761581421 0.0
0.7496038675308228 0.5164291858673096 0.0
1.3451675176620483 0.5190238952636719 0.0
1.9462687969207764 0.4963642954826355 0.0
4.456614971160889 0.5060901641845703 0.0
3.864220380783081 0.4866538345813751 0.0
3.249823808670044 0.482722669839859 0.0
2.6500000953674316 0.5 0.0
0.3810288906097412 0.399004191160202 0.0
2.308779239654541 0.3797946870326996 0.0
1.0499999523162842 0.6625000238418579 0.0
1.644740104675293 0.6598879098892212 0.0
4.150000095367432 0.3375000059604645 0.0
3.555316209793091 0.3343118131160736 0.0
2.9446933269500732 0.3401789665222168 0.0
1.6342840194702148 0.3290160894393921 0.0
1.0591840744018555 0.33908534049987793 0.0
2.9654481410980225 0.6753292679786682 0.0
3.5534629821777344 0.6835107207298279 0.0
4.153462886810303 0.6835107207298279 0.0
2.2139804363250732 0.6805098056793213 0.0
0.4914395809173584 0.6739721894264221 0.0
4.691666603088379 0.6916666626930237 0.0
4.691666603088379 0.3083333373069763 0.0
2.4872219562530518 0.7236665487289429 0.0
0.6240421533584595 0.2677222192287445 0.0
2.0697431564331055 0.2657754421234131 0.0
2.5389034748077393 0.26082900166511536 0.0
0.8147311806678772 0.7450684309005737 0.0
1.2897310256958008 0.743314266204834 0.0
1.8853894472122192 0.7450258731842041 0.0
4.382374286651611 0.23655959963798523 0.0
3.910269021987915 0.25668570399284363 0.0
3.1838724613189697 0.25397706031799316 0.0
1.398239254951477 0.2614254057407379 0.0
3.201760768890381 0.7385746240615845 0.0
3.8017609119415283 0.7385746240615845 0.0
4.39177942276001 0.7466779351234436 0.0
0.25301694869995117 0.7458874583244324 0.0
2.7258167266845703 0.7600342631340027 0.0
0.84163498878479 0.2263137847185135 0.0
0.22429518401622772 0.22429518401622772 0.0
2.7605957984924316 0.22504857182502747 0.0
1.8330284357070923 0.2150011658668518 0.0
0.2192869633436203 0.5323538780212402 0.0
4.7908525466918945 0.5038931369781494 0.0
2.466000556945801 0.5376454591751099 0.0
3.7061264514923096 0.17723728716373444 0.0
3.3929696083068848 0.20266839861869812 0.0
1.4905184507369995 0.7937026619911194 0.0
1.2104878425598145 0.20361483097076416 0.0
3.9895122051239014 0.7963851690292358 0.0
3.389512300491333 0.7963851690292358 0.0
0.5652223825454712 0.5070380568504333 0.0
0.44509074091911316 0.19716571271419525 0.0
2.1318352222442627 0.5042122602462769 0.0
1.548349142074585 0.4954715371131897 0.0
3.050636053085327 0.5004673004150391 0.0
0.9511125087738037 0.498258113861084 0.0
3.651650905609131 0.5045284628868103 0.0
4.248488903045654 0.4980509281158447 0.0
1.1537858247756958 0.49593159556388855 0.0
4.050199031829834 0.49993085861206055 0.0
3.464722156524658 0.509624183177948 0.0
1.749653697013855 0.5001751780509949 0.0
2.851828098297119 0.5057260394096375 0.0
2.359710216522217 0.1888567954301834 0.0
2.0499017238616943 0.8199846148490906 0.0
0.6430503129959106 0.8181284070014954 0.0
4.560274600982666 0.1724673956632614 0.0
4.55863094329834 0.8299665451049805 0.0
2.321284055709839 0.8242537379264832 0.0
4.815218925476074 0.8345447778701782 0.0
4.837246894836426 0.16590170562267303 0.0
0.9682294130325317 0.8331464529037476 0.0
1.730908751487732 0.827606201171875 0.0
4.220076560974121 0.17516615986824036 0.0
3.02066969871521 0.18326662480831146 0.0
1.5634372234344482 0.17044226825237274 0.0
3.035303831100464 0.8294908404350281 0.0
3.627507209777832 0.8360387086868286 0.0
4.2312469482421875 0.8315803408622742 0.0
4.618130683898926 0.5361976027488708 0.0
0.40311703085899353 0.8369210362434387 0.0
1.1473191976547241 0.8458209037780762 0.0
4.052680969238281 0.15417908132076263 0.0
2.020958423614502 0.6394158005714417 0.0
0.662188708782196 0.6447370648384094 0.0
4.5115838050842285 0.3538685142993927 0.0
1.0221220254898071 0.15309639275074005 0.0
0.3837882876396179 0.5515117049217224 0.0
3.548090934753418 0.15800617635250092 0.0
1.4348299503326416 0.6465393304824829 0.0
3.765170097351074 0.3534606993198395 0.0
3.3348300457000732 0.3534606993198395 0.0
1.2546738386154175 0.36384353041648865 0.0
3.945326089859009 0.636156439781189 0.0
3.3412928581237793 0.637225866317749 0.0
2.1904795169830322 0.17066854238510132 0.0
0.16392111778259277 0.38331863284111023 0.0
2.87723445892334 0.8265392184257507 0.0
4.8459792137146 0.6499902606010437 0.0
4.845625400543213 0.34837812185287476 0.0
2.771622896194458 0.38129922747612 0.0
4.5222978591918945 0.6578375697135925 0.0
2.604464530944824 0.8240283727645874 0.0
1.8544400930404663 0.3751189708709717 0.0
0.8566747903823853 0.38255012035369873 0.0
2.2932615280151367 0.5369129776954651 0.0
2.620572805404663 0.6496497392654419 0.0
0.7172287106513977 0.1490369737148285 0.0
0.1410960853099823 0.8303417563438416 0.0
1.7142322063446045 0.142862930893898 0.0
2.6314175128936768 0.14492936432361603 0.0
1.9832650423049927 0.1408119648694992 0.0
2.445650577545166 0.370038241147995 0.0
2.885042667388916 0.1455758661031723 0.0
0.13937503099441528 0.6546638011932373 0.0
0.9110832810401917 0.6349053978919983 0.0
3.088575839996338 0.3613528311252594 0.0
4.296638011932373 0.3563385307788849 0.0
1.1930090188980103 0.6355591416358948 0.0
1.788455843925476 0.6387236714363098 0.0
4.006990909576416 0.3644408583641052 0.0
1.4459187984466553 0.39242905378341675 0.0
4.354081153869629 0.6075709462165833 0.0
3.7540812492370605 0.6075709462165833 0.0
3.1591691970825195 0.6018876433372498 0.0
2.7615907192230225 0.6205627918243408 0.0
2.36276912689209 0.6735464930534363 0.0
1.3681535720825195 0.8630191683769226 0.0
3.8318464756011963 0.1369808316230774 0.0
3.275517463684082 0.10712132602930069 0.0
0.5630941987037659 0.12814241647720337 0.0
1.3237862586975098 0.10638008266687393 0.0
3.2733232975006104 0.8705052733421326 0.0
3.8733232021331787 0.8705052733421326 0.0
2.0396511554718018 0.38928428292274475 0.0
2.2168734073638916 0.8508136868476868 0.0
0.5163488388061523 0.3409615159034729 0.0
0.6547463536262512 0.3955095112323761 0.0
1.9480526447296143 0.8710126876831055 0.0
4.689375877380371 0.13700176775455475 0.0
4.698264122009277 0.8675068616867065 0.0
0.7578787803649902 0.8698469996452332 0.0
2.479548454284668 0.13692785799503326 0.0
2.4562506675720215 0.8735422492027283 0.0
2.171211004257202 0.3573116958141327 0.0
3.5117530822753906 0.853193998336792 0.0
4.107914924621582 0.8658969402313232 0.0
2.640726327896118 0.354434996843338 0.0
4.346996307373047 0.1279495507478714 0.0
0.3128283619880676 0.11246757209300995 0.0
0.136248379945755 0.12152919173240662 0.0
4.453908443450928 0.8629162907600403 0.0
1.6064813137054443 0.8679171800613403 0.0
0.3380795121192932 0.6626779437065125 0.0
0.5102446675300598 0.875635027885437 0.0
0.7425088882446289 0.2989330589771271 0.0
3.1349449157714844 0.10448489338159561 0.0
1.3287748098373413 0.6181886196136475 0.0
3.871795415878296 0.38215625286102295 0.0
3.229135036468506 0.3810797333717346 0.0
0.28971707820892334 0.8759857416152954 0.0
0.9214505553245544 0.11992674320936203 0.0
1.9219478368759155 0.6237660050392151 0.0
1.530794620513916 0.29603153467178345 0.0
3.072223663330078 0.7044162750244141 0.0
3.6722235679626465 0.7044162750244141 0.0
[...]
POINT_DATA 715
SCALARS Psi double
LOOKUP_TABLE default
0.0
0.0
1.0
1.0
1.0
1.0
1.0
1.0
1.0
1.0
1.0
1.0
1.0
1.0
1.0
1.0
1.0
1.0
1.0
1.0
1.0
1.0
1.0
1.0
1.0
1.0
1.0
1.0
1.0
1.0
1.0
1.0
1.0
1.0
1.0
1.0
1.0
1.0
1.0
1.0
1.0
1.0
1.0
1.0
1.0
1.0
1.0
1.0
1.0
1.0
1.0
1.0
1.0
0.9194057370345612
0.8660929792427144
0.7651090467399158
0.6284429301696682
0.47037162708231534
0.31122671725084844
0.17274858677087548
0.0705735585037214
0.018545923238097586
0.0
0.0
0.0
0.0
0.0
0.0
0.0
0.0
0.0
0.0
0.0
0.0
0.0
0.0
0.0
0.0
0.0
0.0
0.0
0.0
0.0
0.0
0.0
0.0
0.0
0.0
0.0
0.0
0.0
0.0
0.0
0.0
0.0
0.0
0.0
0.0
0.0
0.0
0.0
0.0
0.0
0.0
-0.0
0.0
0.0
0.0
0.0
0.0
0.0
0.027348999984133558
0.10769486248629437
0.20923049057238882
0.3108738929667367
0.41246450789401395
0.5108191315468619
0.6026380290471781
0.6784509175410368
0.6416408905008752
0.5300717193947102
0.5436216385022408
0.5007588639429644
0.4941510166106434
0.46997921968416545
0.47107950292896345
0.5088174810939792
0.32040614248032295
0.3064682130107979
0.7747655663637864
0.7665097216456652
0.22662033260326128
0.2227777923007841
0.24387983074795366
0.22700752730900414
0.25487211643069835
0.7931891199149382
0.7924398622257325
0.7898642647281086
0.7982026677978991
0.7598884221599834
0.7869288796699572
0.17542168526250385
0.8543981593644339
0.15684059406848755
0.14324199352913966
0.1379610667671456
0.8816156946782345
0.8776471621562144
0.8765558557430807
0.09070642470578244
0.12163002513954171
0.12213063451748915
0.13536069013222296
0.8700933318345755
0.8649355302284237
0.869954359027689
0.7934742433185307
0.9003915311734909
0.11060396686852274
0.11127145230015109
0.09460970650831492
0.08178144511506598
0.46456873570395385
0.4793205868079804
0.57229078200051
0.03978852479891681
0.062276951849002296
0.9299659248277075
0.06977865125370021
0.9270594822021757
0.9274874849121568
0.49545878588735826
0.07117572363403418
0.5148309960553347
0.5012960969942836
0.5064248651021444
0.5098928476798744
0.5019753127980973
0.4851922172841804
0.5069650637146379
0.4911177102061697
0.5126273760140165
0.5076243176110532
0.5184337710481779
0.056419412323863924
0.9538105471424835
0.9590474424711248
0.0364312484619926
0.9540047526957111
0.9594795029163539
0.9427828142950428
0.027749630897501168
0.9639154152119723
0.9568991461902081
0.039935096115388945
0.0514951266001679
0.040674455094589675
0.9655473515751949
0.9619500873062219
0.9588329240419916
0.5405139090886741
0.9786724531156579
0.9709333335094636
0.029489719350754635
0.7352907764141811
0.7344624429052855
0.24303672652675748
0.03679824383082698
0.5292908513614042
0.02884820046517819
0.748998966488209
0.25077864344357464
0.2553079881337107
0.2870067667626328
0.7188012762038624
0.7253823402615036
0.043542828568745175
0.2947970572947236
0.9645675422847898
0.7154706831784644
0.22591336829005954
0.3098937725856614
0.7443920732905005
0.9599391603886233
0.29839211031570456
0.3223264116679895
0.5703217729363905
0.7546824178067684
0.03726363544005716
0.8225968934224012
0.0253632419726329
0.02665779428260294
0.024682940808204903
0.2919200154011323
0.02580453150233915
0.5837993028426638
0.731698237985642
0.27412697701510264
0.2515035260132136
0.7338391328430172
0.7335044060287309
0.26877785846001434
0.32947924770041104
0.6680620347294517
0.6742108123591152
0.6743099912200171
0.709447006040516
0.7867122698003565
0.9791960470339394
0.017522882566920587
0.0018634389676540398
0.021263006018168818
0.001108546783385972
0.9816330888341661
0.9826356836620401
0.3220966893495137
0.976136466391813
0.24963638205928476
0.3344928857669607
0.9853690428552045
0.019421025380381957
0.9790364980055603
0.9849566742289939
0.022779449496343706
0.9841872793419815
0.27142558536799444
0.970222053092
0.9806180548825625
0.2683043592881128
0.005709230986963501
0.006011423392007761
0.02259000097845068
0.9776412414010677
0.9812321853513676
0.6942349373284536
0.9922281635313029
0.19999056258832676
0.003036619677022834
0.7057685824672271
0.2967413268534873
0.30208627090735024
1.018757006745529
0.021837899242810647
0.7100432478124906
0.1810467254988587
0.8305424947622863
0.8199934840563351
0.8168050885896906
1.005745220169543
0.6891965189645806
0.0041181699921552265
0.9948148873434588
0.9943919550358895
0.15506230716901334
0.3229854885068709
0.18146800070650795
0.9957622017979768
0.0036465327991427776
0.8691871564986586
0.2910157216409041
0.12751240163225663
0.34094464986747447
0.011380950142258607
0.16199700155785263
0.9905701022859812
0.9901133495747092
0.12428182133443244
0.18945467929477366
-0.0015318595513170324
0.4400190708990515
-0.0033918802073262
0.4047658826476076
0.19081440595704094
-0.0037114552862517083
0.0007836260653103893
0.4099808822687471
0.4269652260072132
0.41468079006611386
0.5925634087759722
0.5912058241217075
0.0031126770767436426
0.5523222172939874
0.001619043719695652
0.6949051793104368
0.12710121603439428
0.6021287785871866
1.00108891526383
0.807058517099697
0.17323749022274706
0.8050227833101509
0.18168694950929234
0.20011979426470325
0.8172321460836236
0.998344042370167
0.0016299683351370135
0.13083081659066423
0.8665678070781253
0.13260363657301602
0.3305119405226212
0.619151426038563
0.8291381797545005
0.10378768870313121
0.4081890750727841
0.4167357886765872
0.6112848377898392
0.5995694698968496
0.593422038153293
0.020349721990968166
0.6538770110274693
0.13743498936185397
0.8670910135866764
0.8635789179215798
0.5958958839122095
0.40827852160090267
0.4230208500592829
0.0038076854738278206
0.5897980502330878
0.8686971644857711
0.13289754656331143
1.0063208477722163
0.19316957122258788
0.5743220588910267
0.6579473817806812
0.4052957721249758
0.8631580251197993
0.581542873007803
0.9991986273884994
0.45025023001893116
0.9885005368407803
0.9876683012601938
0.896544350295132
0.867349743469167
0.9585337481612509
0.0058333983845013345
0.424016675303286
0.7084808029553241
0.5769097127678529
0.6828182692778723
0.365545170687579
0.10304507323473892
-0.0013924910552917504
0.43977531986927487
0.21144067513537637
0.840861120896164
0.5648313633263408
0.44159725135164707
0.4469741229684847
0.8513459154513574
0.8766001585898382
0.13649960118484492
0.12153627955837631
0.8691711346871562
0.4090325980437231
0.9990641138221278
0.14237993656563255
0.9061649454232724
0.907296171850799
0.3563088396296227
0.9178473524320759
1.0040490300860883
0.11270006856786002
0.14131136909443617
0.678105599753931
0.3238426103705077
0.6796643655200375
0.6898702442570608
0.08409091725676117
0.6698562866808763
0.33456502063737686
0.33421050155107823
0.006507259926917963
0.4727518988907756
0.2623847497120956
0.7400246878615444
0.7664753031617333
0.33909770958734115
0.8774028168470849
0.6681307535028744
0.6638270544685537
0.6366055600497672
0.007559842303103858
0.007446541901776465
0.1289919029727599
0.8247128284288964
-0.0030570800882250247
0.9160109306661289
0.9162368970692759
0.8491086800270586
-0.0033541655014574607
-0.002733460108722607
0.1901413462777526
0.3406078603726125
0.0003097212477284199
1.000422925673729
0.33699424436221626
0.8881954182703933
1.000163414365833
0.8834826571858907
0.11879081320310014
1.0057845561764118
-0.0013869816063214568
0.10162627822126323
0.9955320778419511
-0.000415604523165147
0.31754098966179456
0.0005933533129003009
0.6922518854470947
0.0036544227323471873
1.001938497828995
1.0043892013837314
0.11128364707365236
0.49314591091359455
0.14936482378954888
0.9977613649595031
0.8866566531850073
0.9988942491660125
0.32679840053898057
0.999372342385061
1.0027988377624768
0.13331854935428797
0.08757475132855096
8.323691734568173e-05
0.2786542162227945
0.6486868459447699
0.5856634050172544
0.4122548679864972
0.5638796289657005
1.0039995299869198
0.2555404134275523
0.5717954764815213
0.999925274045931
0.00036415117611964887
-0.001301666294535826
0.193643517055091
0.4071584358606139
0.5779019126073259
-0.001798975391714884
0.9218817299637626
1.0051777986516577
0.88479936933634
0.09055809694264863
0.9150106625291867
0.9091909570151014
0.6339312337482436
0.07669979956250737
0.8967051111352049
-0.0018972617202333397
0.2774701458848984
0.002632782393979552
0.9331379441813509
0.06655068487955096
-0.0014678943687804443
0.5889958153059767
0.5399691369231624
1.0042137350090692
1.0154459224460655
1.0014555604165032
0.0013092918003983595
0.4333192320403878
0.6801678330158315
0.6879537410948535
0.6822669636336313
0.31909013948388654
0.315372201151214
0.3292350762345944
0.9440871299097865
1.0353795601165878
0.9973969196228162
0.9947696217568036
0.9634830753329108
0.6847780053172202
0.7573486341539832
-0.0019369115802399146
0.0649463142538534
0.7910989676957776
0.7070470868469771
0.22880026074881638
0.8726694907681671
0.08387409530763282
0.07520970224649805
0.7187688595328481
0.6217233164005436
0.4344830176356814
0.9980612717045955
1.001181637375277
0.7751224428527242
0.10035680354013786
0.9314709647557153
0.2104237914038328
0.9524970270297555
0.05267215740845359
1.0003248137023497
0.0021537055689490586
0.3658374572822873
0.6131270479135784
0.3598048919377425
0.8332940102679862
0.04121419319471798
0.5914825447119071
0.37552771835264465
0.8395320423973663
-0.0011417346053009926
-0.0034728430045965287
0.18944925737895144
0.17337370344370287
0.05607043220220952
0.10336334520470715
0.9457125910223905
0.8419721256179191
0.1591013518654877
0.8016882683900266
0.20304890259166533
0.9068483041232325
0.9040961419814131
0.903600108289279
-0.004592248973660379
0.9414689821964495
0.358732362438184
0.2157108530057026
1.0004443694832579
0.16811664589019004
0.5586751943315024
0.7148428870168241
0.6116185566505831
0.6411266868342258
0.04317578891651259
0.9526559352934391
0.9519494595641443
0.054841940357300424
0.6962952005579884
-0.006147006638160509
1.0057816704145297
1.0036359652282607
0.037014546392039695
0.04088451067309872
0.8953806742400591
0.2519217143761838
0.9484955903810696
0.45006579697336463
0.8604558055193067
-0.000398270806481547
0.6446864215232654
0.3550932371081408
0.3657302957206546
1.0010985872124838
-0.0020719095575929647
0.5573407306996079
-0.0075555930944427325
0.41322347630716283
0.06739205811347256
-0.0011414214627996245
0.234116206978748
0.6274342368777495
0.720312939389581
0.7849392226322877
0.9501468705190051
0.04745093580324803
0.2402412850894051
0.18335556424301766
0.7698396138559168
1.0044281637571224
0.23313298957215323
0.06781828517719514
0.18377482319908145
0.05301162079612908
0.930535377928215
0.04614434277663725
0.2093957202409566
0.7878498480668388
0.7924808944640461
0.8011601047649914
0.4076801161299273
1.0058766931608822
0.3694479996517724
0.9182600759204326
-0.0011975449937073623
0.050478062258707594
0.039319886616749844
0.5967090076117472
0.06965900136216396
0.002097692137959948
0.059880518155487394
0.0815781309027998
0.41228888088239984
0.5623434823546342
0.029664712530588205
0.19268524384328486
-0.001822335787669804
1.0000556542407297
0.918923333039553
0.4338249419086915
0.571437781736646
0.6278153263832197
0.9393326942957712
0.05105765842770654
0.050002385926059906
0.998243356487477
0.03020120734199357
0.5060822525844096
0.3241655159344209
0.11870466496803965
-0.0008021643844722494
0.7918082574683353
0.9494512110941804
0.14401273666933323
0.12544920328034465
0.8545629391540979
1.00172955436639
0.044718539127577665
0.9440174130615385
0.9436627001115049
0.44408573125164036
0.4429148696973915
1.0007775842061903
0.2141789696373231
0.3346772885482136
0.37430795238036413
0.0002611902997480648
0.9680543569644025
0.9688852538714872
0.24455590587648401
0.5983625303481537
0.8335842004808739
0.8357910589140418
0.18890310728582935
0.8310022692398347
0.23112268620734372
0.8829115656215344
0.8816492960368241
0.6197045822389496
0.8947793354271907
0.6200447869923532
0.050976062005351264
0.9505936360448728
0.39223098463895506
0.6235663318879989
0.3764118748502736
-0.00713871779646428
0.3126978353912445
0.0568317428322385
-0.0004585093380187435
0.5681492850461164
0.11514254475731664
0.220290700310115
0.08609451132610395
0.8003113264563139
0.8744784204132768
0.9760369026882835
0.5853721230668492
0.0032576980535972224
0.40371969838012
0.07770184023898069
0.9991960772958621
1.000190499237636
-0.0009373699224133346
0.05792912513849739
0.9463787323029789
0.0004112361700036688
-0.004116310445446999
0.23323545339231289
0.7684646202723288
0.43686527397983776
1.0027893715050993
0.22214223412556777
0.8205013745896661
0.1972318653336356
0.8093208244074593
0.1905009626939343
0.9786987559130383
0.0016163379205082807
0.4079857475962858
1.0008860927624252
0.9587040227823543
0.043000694825623756

SCALARS Omega double
LOOKUP_TABLE default
-7.676494028403985
-1.17989973199592
8.580349171519718
15.92018624441299
36.5108906187236
-6.477766389022151
2.423262259423558
-4.464724192215189
-0.4278332453464336
1.92349146118497
0.04827010043363988
-0.636810490363652
0.4851460267802847
1.1460446835294407
0.23181251285774676
0.826113728591571
0.5475195077390387
0.7959538812198429
1.5573588087489674
-0.08784840295222729
1.415455945849328
1.244591880373671
-0.4112050752585755
0.4896559739117721
1.0659343267047336
1.0374294361406324
0.7617125428812785
0.2384957512954178
0.46040079671843515
1.4204629670770612
1.1082947794454572
0.16254618644594676
1.3306469312040645
0.8624583375778645
0.4163419133588361
1.1164275259457974
0.7541848785074862
0.3782647832692737
1.3083036422408554
0.675826521296049
1.3746658944339878
0.6931199310282002
0.43387557205132504
0.3515979799140128
0.9397137015835285
0.7232464427800368
2.1192040251575777
0.4642643119515182
-0.4623121769716091
2.157408070958125
0.8685407153011626
1.859952772408677
9.581138012896666
-7.843034204719934
0.5713685095576233
2.8665154304379286
1.6398268014312456
-0.10572166268059703
-1.1603198335772973
-2.64699862439063
-3.3028690763725868
-1.5487982358231465
-0.2511203319418914
-0.648979333161652
-1.0536658305100388
-0.1352145314892792
-0.7025413483368144
-0.3814532399017335
-1.064611210793438
-0.816655162253922
-0.310562892705605
-0.7193626144536339
-0.458094317523052
0.09648434354756612
-1.7651686812685776
-0.6488500737533344
0.38743262445145077
-1.4919278622580856
-0.5989784920493949
-0.29995595784822665
-1.1068980716846921
-0.806750920947052
-0.4253422308546335
-1.102706040448211
-0.8861326691632719
-1.4151406141007445
-0.17072847711059763
-0.5593065801610388
-0.9685318660081712
-1.0828291673976178
-0.7433328301667487
0.6869959350430433
-1.3965855411843373
-1.2263329911898648
0.2046709262494709
-0.8518306887683565
-1.1191123602554627
-0.16272710936638998
-0.5575778836903764
-1.5263713521829518
-1.5309101968590186
-0.39326931902200946
-1.9061793339240027
-0.4859242782130125
-2.07217163545705
-0.49878353901388955
-0.13993167757220323
-2.069502461481386
-1.9109532577986739
-0.8190353883394917
0.7511225361751892
-4.592709470892374
2.645809417816302
0.31204225959480886
-0.025403443509983005
-0.8569637942475052
1.6497873415414357
-5.88926034552415
-2.340395243630553
-42.608341745518246
-0.5123570627131874
0.5152432492209206
0.10190849008359477
-0.08329581915184496
-0.2882625588572536
-0.2607527919243628
0.12079937876872585
-0.37611964738622855
-2.0007765777020796
3.1284592076240685
2.875754401615267
-2.9558711261787245
-2.954985850479104
-2.691919149237446
-2.849969502654994
-2.0454676541414116
3.149811443869966
3.1781889267981103
3.1327480802817096
3.1593761668966507
2.3171796879710285
3.1758179169499283
-3.561345402979208
3.9784471501778635
-2.5860002222456826
-4.172680520458954
-4.139792828177332
5.2158490533148285
4.356183431557248
4.175392570837721
-4.82564617817033
-4.439625752667375
-4.326698757209223
-4.100143373846422
4.319437809945331
4.130714054600672
4.366716650241057
1.9688206694005144
4.644350133190879
-3.967508978843946
-1.702844620490781
-4.743599180869023
-5.079487917840994
-1.4216856718807338
-0.22069601363524285
0.7620180256100365
-6.2806209573546425
-5.45170632007731
5.053463731988974
-5.15189777295405
5.2626358346981545
5.072564098102076
-1.2640508941654853
-4.89942370382992
0.2199901545105631
0.1343613757949908
0.08965467261522254
-0.17018303347431626
0.04654733584475977
-0.17211210597835194
0.06457346263577916
-0.09408380131613424
0.15877863444776422
0.1952186274249284
0.21471127925013225
-5.607689301064876
5.379280794203848
7.331972801875804
-5.7505939499339895
5.849899094118803
5.87147366670845
6.145942703391745
-5.333988155740871
5.6415744496779165
5.246162313473533
-5.574018870087283
-5.467591351735148
-6.386410100128171
6.500846470625948
5.61808867332634
5.7494221002104045
0.3823816822788267
13.25165758043786
5.601152883568791
-5.535291752538589
2.4813883185319843
2.2673709673065527
-2.7003641424960856
-5.439033065590787
-2.3410141401136357
-5.906202307262147
2.7087422260568093
-2.6284993186763783
-2.561200244679488
-1.8810902278373256
2.2704228366951296
2.4032460040886847
-5.567297334082718
0.08634345273614112
6.051461281883229
2.0376186778799803
-2.543590425485574
-1.9426964739521924
2.57961002383024
5.626960394210472
-2.0336071091970878
-1.2680244087017967
0.7526920338842372
2.69184897890504
-6.110369111467292
-1.8663096668199037
-6.138619358578681
-6.0708276936855645
-6.2553093762380145
-2.1639206699540483
-6.126229333535718
-4.518051419323052
2.4875765730061854
-2.344139533872756
-2.6381074412846672
2.5638488882794928
2.488333990547301
-2.4536454228480684
-1.5502377888694738
1.717647811084777
1.8226183117323547
1.8177808338721333
2.194465625515798
3.0892877613362626
5.702453338658866
-6.452079314578436
-7.439841950683913
-6.641440429901513
-8.33789881691011
6.229868364752312
6.777744817426703
-1.7931006947402457
6.6499325599424495
-0.913570672288773
-1.006846591803299
6.53853098340137
-5.29937949976629
7.917767154578276
6.006383545621963
-6.063422287033922
5.586741779406582
-2.4017497138853563
5.585775844427144
6.961518090679925
-2.4240492723484546
-8.27695444039031
-10.849662294786002
-8.805223387048676
6.512466321075361
5.740242204734911
-1.035741926067064
7.100536118614192
-2.16770943189204
-7.764941153620892
2.234183276270643
-2.1189573121072356
-2.0444849041898827
23.702497324466645
-6.2147418092572915
2.2336803128112788
-3.470757520653232
3.6968070738979373
3.4831663175038647
3.481838120205012
7.460383317197535
1.626618259736599
-8.214945608025385
8.26829134854912
6.794774869681749
-1.450245598862539
-1.828789758202661
-3.5353849572516256
6.683746515967589
-6.5985743121077665
4.168978282049072
-2.188991188570777
-3.759805438115866
-0.4460107299323557
-6.215027324871593
3.2824833481611946
7.42901948183528
5.573580782357273
-4.340584207808961
-3.414612624614173
-9.953879476472897
-0.5694558578146677
-7.952246896096259
-1.4071399393098316
-3.3451819554803865
-8.550029300505807
-7.764480468623916
-0.9242782929260192
-0.7046807362101929
-0.8354093261581783
0.7763827320835021
1.02632697911067
-7.111176586974378
1.4793794757706131
-9.029148813730526
2.0483536160977027
-4.239884399114721
-4.132625365901966
9.415717647180845
3.370500975535864
-3.1134841549815864
3.3611391530231147
-3.4751066824313486
-3.2630456245328716
3.477509303343027
6.70694642880269
-6.301326751496717
-4.283302804147278
4.157269195514839
-4.166013774325852
-1.2838432805222129
1.1970695910477371
6.212166805102569
-9.91042631893423
-0.7847393367499785
-0.7308751293070178
1.1458599776051575
1.0485209562682396
0.9290992771455102
-6.702154573263742
-8.023514101715312
-3.9087207829318205
4.2324205817722795
4.125658276279803
0.9924341215869152
-0.9280314306247259
-0.74478089376299
-8.630731920659583
0.999462273767879
4.409726520827405
-4.175488872181393
9.35332196158491
-3.3481017932712236
-0.4402399116512544
0.2049848748200609
-0.9761387759229213
4.0215411308447315
0.2414072558188649
8.352870939938676
-0.4558193116734401
6.511538109949401
6.084697609428351
4.548824217650373
5.499125505490704
2.586535445097813
-7.445440497611791
-1.288604792760417
2.163531089212184
0.8519258724810423
1.9121111492544525
-2.293323301203121
-4.6252020947564425
-10.00435584442892
-0.6351369284682876
0.7356070998961636
3.7203555543348363
0.7402235740368166
-0.5694319324066781
-0.5020995758538955
5.486258413889641
4.904141842760718
-4.099076095649866
-4.248487584238989
4.057685779412242
-0.8670317445049214