# vtk DataFile Version 1.0
2D Simulation C++
ASCII
DATASET UNSTRUCTURED_GRID
FIELD FieldData 1
NODES 1 2 int
715 1308

POINTS 715 double
0.0 0.0 0.0
5.0 0.0 0.0
5.0 1.0 0.0
0.0 1.0 0.0
0.10000000149011612 1.0 0.0
0.20000000298023224 1.0 0.0
0.30000001192092896 1.0 0.0
0.4000000059604645 1.0 0.0
0.5 1.0 0.0
0.6000000238418579 1.0 0.0
0.699999988079071 1.0 0.0
0.800000011920929 1.0 0.0
0.8999999761581421 1.0 0.0
1.0 1.0 0.0
1.100000023841858 1.0 0.0
1.2000000476837158 1.0 0.0
1.2999999523162842 1.0 0.0
1.399999976158142 1.0 0.0
1.5 1.0 0.0
1.600000023841858 1.0 0.0
1.7000000476837158 1.0 0.0
1.7999999523162842 1.0 0.0
1.899999976158142 1.0 0.0
2.0 1.0 0.0
2.0999999046325684 1.0 0.0
2.200000047683716 1.0 0.0
2.299999952316284 1.0 0.0
2.4000000953674316 1.0 0.0
2.5 1.0 0.0
2.5999999046325684 1.0 0.0
2.700000047683716 1.0 0.0
2.799999952316284 1.0 0.0
2.9000000953674316 1.0 0.0
3.0 1.0 0.0
3.0999999046325684 1.0 0.0
3.200000047683716 1.0 0.0
3.299999952316284 1.0 0.0
3.4000000953674316 1.0 0.0
3.5 1.0 0.0
3.5999999046325684 1.0 0.0
3.700000047683716 1.0 0.0
3.799999952316284 1.0 0.0
3.9000000953674316 1.0 0.0
4.0 1.0 0.0
4.099999904632568 1.0 0.0
4.199999809265137 1.0 0.0
4.300000190734863 1.0 0.0
4.400000095367432 1.0 0.0
4.5 1.0 0.0
4.599999904632568 1.0 0.0
4.699999809265137 1.0 0.0
4.800000190734863 1.0 0.0
4.900000095367432 1.0 0.0
5.0 0.8999999761581421 0.0
5.0 0.800000011920929 0.0
5.0 0.699999988079071 0.0
5.0 0.6000000238418579 0.0
5.0 0.5 0.0
5.0 0.4000000059604645 0.0
5.0 0.30000001192092896 0.0
5.0 0.20000000298023224 0.0
5.0 0.10000000149011612 0.0
4.900000095367432 0.0 0.0
4.800000190734863 0.0 0.0
4.699999809265137 0.0 0.0
4.599999904632568 0.0 0.0
4.5 0.0 0.0
4.400000095367432 0.0 0.0
4.300000190734863 0.0 0.0
4.199999809265137 0.0 0.0
4.099999904632568 0.0 0.0
4.0 0.0 0.0
3.9000000953674316 0.0 0.0
3.799999952316284 0.0 0.0
3.700000047683716 0.0 0.0
3.5999999046325684 0.0 0.0
3.5 0.0 0.0
3.4000000953674316 0.0 0.0
3.299999952316284 0.0 0.0
3.200000047683716 0.0 0.0
3.0999999046325684 0.0 0.0
3.0 0.0 0.0
2.9000000953674316 0.0 0.0
2.799999952316284 0.0 0.0
2.700000047683716 0.0 0.0
2.5999999046325684 0.0 0.0
2.5 0.0 0.0
2.4000000953674316 0.0 0.0
2.299999952316284 0.0 0.0
2.200000047683716 0.0 0.0
2.0999999046325684 0.0 0.0
2.0 0.0 0.0
1.899999976158142 0.0 0.0
1.7999999523162842 0.0 0.0
1.7000000476837158 0.0 0.0
1.600000023841858 0.0 0.0
1.5 0.0 0.0
1.399999976158142 0.0 0.0
1.2999999523162842 0.0 0.0
1.2000000476837158 0.0 0.0
1.100000023841858 0.0 0.0
1.0 0.0 0.0
0.8999999761581421 0.0 0.0
0.800000011920929 0.0 0.0
0.699999988079071 0.0 0.0
0.6000000238418579 0.0 0.0
0.5 0.0 0.0
0.4000000059604645 0.0 0.0
0.30000001192092896 0.0 0.0
0.20000000298023224 0.0 0.0
0.10000000149011612 0.0 0.0
0.0 0.10000000149011612 0.0
0.0 0.20000000298023224 0.0
0.0 0.30000001192092896 0.0
0.0 0.4000000059604645 0.0
0.0 0.5 0.0
0.0 0.6000000238418579 0.0
0.0 0.699999988079071 0.0
0.0 0.800000011920929 0.0
0.0 0.8999999761581421 0.0
0.7496038675308228 0.5164291858673096 0.0
1.3451675176620483 0.5190238952636719 0.0
1.9462687969207764 0.4963642954826355 0.0
4.456614971160889 0.5060901641845703 0.0
3.864220380783081 0.4866538345813751 0.0
3.249823808670044 0.482722669839859 0.0
2.6500000953674316 0.5 0.0
0.3810288906097412 0.399004191160202 0.0
2.308779239654541 0.3797946870326996 0.0
1.0499999523162842 0.6625000238418579 0.0
1.644740104675293 0.6598879098892212 0.0
4.150000095367432 0.3375000059604645 0.0
3.555316209793091 0.3343118131160736 0.0
2.9446933269500732 0.3401789665222168 0.0
1.6342840194702148 0.3290160894393921 0.0
1.0591840744018555 0.33908534049987793 0.0
2.9654481410980225 0.6753292679786682 0.0
3.5534629821777344 0.6835107207298279 0.0
4.153462886810303 0.6835107207298279 0.0
2.2139804363250732 0.6805098056793213 0.0
0.4914395809173584 0.6739721894264221 0.0
4.691666603088379 0.6916666626930237 0.0
4.691666603088379 0.3083333373069763 0.0
2.4872219562530518 0.7236665487289429 0.0
0.6240421533584595 0.2677222192287445 0.0
2.0697431564331055 0.2657754421234131 0.0
2.5389034748077393 0.26082900166511536 0.0
0.8147311806678772 0.7450684309005737 0.0
1.2897310256958008 0.743314266204834 0.0
1.8853894472122192 0.7450258731842041 0.0
4.382374286651611 0.23655959963798523 0.0
3.910269021987915 0.25668570399284363 0.0
3.1838724613189697 0.25397706031799316 0.0
1.398239254951477 0.2614254057407379 0.0
3.201760768890381 0.7385746240615845 0.0
3.8017609119415283 0.7385746240615845 0.0
4.39177942276001 0.7466779351234436 0.0
0.25301694869995117 0.7458874583244324 0.0
2.7258167266845703 0.7600342631340027 0.0
0.84163498878479 0.2263137847185135 0.0
0.22429518401622772 0.22429518401622772 0.0
2.7605957984924316 0.22504857182502747 0.0
1.8330284357070923 0.2150011658668518 0.0
0.2192869633436203 0.5323538780212402 0.0
4.7908525466918945 0.5038931369781494 0.0
2.466000556945801 0.5376454591751099 0.0
3.7061264514923096 0.17723728716373444 0.0
3.3929696083068848 0.20266839861869812 0.0
1.4905184507369995 0.7937026619911194 0.0
1.2104878425598145 0.20361483097076416 0.0
3.9895122051239014 0.7963851690292358 0.0
3.389512300491333 0.7963851690292358 0.0
0.5652223825454712 0.5070380568504333 0.0
0.44509074091911316 0.19716571271419525 0.0
2.1318352222442627 0.5042122602462769 0.0
1.548349142074585 0.4954715371131897 0.0
3.050636053085327 0.5004673004150391 0.0
0.9511125087738037 0.498258113861084 0.0
3.651650905609131 0.5045284628868103 0.0
4.248488903045654 0.4980509281158447 0.0
1.1537858247756958 0.49593159556388855 0.0
4.050199031829834 0.49993085861206055 0.0
3.464722156524658 0.509624183177948 0.0
1.749653697013855 0.5001751780509949 0.0
2.851828098297119 0.5057260394096375 0.0
2.359710216522217 0.1888567954301834 0.0
2.0499017238616943 0.8199846148490906 0.0
0.6430503129959106 0.8181284070014954 0.0
4.560274600982666 0.1724673956632614 0.0
4.55863094329834 0.8299665451049805 0.0
2.321284055709839 0.8242537379264832 0.0
4.815218925476074 0.8345447778701782 0.0
4.837246894836426 0.16590170562267303 0.0
0.9682294130325317 0.8331464529037476 0.0
1.730908751487732 0.827606201171875 0.0
4.220076560974121 0.17516615986824036 0.0
3.02066969871521 0.18326662480831146 0.0
1.5634372234344482 0.17044226825237274 0.0
3.035303831100464 0.8294908404350281 0.0
3.627507209777832 0.8360387086868286 0.0
4.2312469482421875 0.8315803408622742 0.0
4.618130683898926 0.5361976027488708 0.0
0.40311703085899353 0.8369210362434387 0.0
1.1473191976547241 0.8458209037780762 0.0
4.052680969238281 0.15417908132076263 0.0
2.020958423614502 0.6394158005714417 0.0
0.662188708782196 0.6447370648384094 0.0
4.5115838050842285 0.3538685142993927 0.0
1.0221220254898071 0.15309639275074005 0.0
0.3837882876396179 0.5515117049217224 0.0
3.548090934753418 0.15800617635250092 0.0
1.4348299503326416 0.6465393304824829 0.0
3.765170097351074 0.3534606993198395 0.0
3.3348300457000732 0.3534606993198395 0.0
1.2546738386154175 0.36384353041648865 0.0
3.945326089859009 0.636156439781189 0.0
3.3412928581237793 0.637225866317749 0.0
2.1904795169830322 0.17066854238510132 0.0
0.16392111778259277 0.38331863284111023 0.0
2.87723445892334 0.8265392184257507 0.0
4.8459792137146 0.6499902606010437 0.0
4.845625400543213 0.34837812185287476 0.0
2.771622896194458 0.38129922747612 0.0
4.5222978591918945 0.6578375697135925 0.0
2.604464530944824 0.8240283727645874 0.0
1.8544400930404663 0.3751189708709717 0.0
0.8566747903823853 0.38255012035369873 0.0
2.2932615280151367 0.5369129776954651 0.0
2.620572805404663 0.6496497392654419 0.0
0.7172287106513977 0.1490369737148285 0.0
0.1410960853099823 0.8303417563438416 0.0
1.7142322063446045 0.142862930893898 0.0
2.6314175128936768 0.14492936432361603 0.0
1.9832650423049927 0.1408119648694992 0.0
2.445650577545166 0.370038241147995 0.0
2.885042667388916 0.1455758661031723 0.0
0.13937503099441528 0.6546638011932373 0.0
0.9110832810401917 0.6349053978919983 0.0
3.088575839996338 0.3613528311252594 0.0
4.296638011932373 0.3563385307788849 0.0
1.1930090188980103 0.6355591416358948 0.0
1.788455843925476 0.6387236714363098 0.0
4.006990909576416 0.3644408583641052 0.0
1.4459187984466553 0.39242905378341675 0.0
4.354081153869629 0.6075709462165833 0.0
3.7540812492370605 0.6075709462165833 0.0
3.1591691970825195 0.6018876433372498 0.0
2.7615907192230225 0.6205627918243408 0.0
2.36276912689209 0.6735464930534363 0.0
1.3681535720825195 0.8630191683769226 0.0
3.8318464756011963 0.1369808316230774 0.0
3.275517463684082 0.10712132602930069 0.0
0.5630941987037659 0.12814241647720337 0.0
1.3237862586975098 0.10638008266687393 0.0
3.2733232975006104 0.8705052733421326 0.0
3.8733232021331787 0.8705052733421326 0.0
2.0396511554718018 0.38928428292274475 0.0
2.2168734073638916 0.8508136868476868 0.0
0.5163488388061523 0.3409615159034729 0.0
0.6547463536262512 0.3955095112323761 0.0
1.9480526447296143 0.8710126876831055 0.0
4.689375877380371 0.13700176775455475 0.0
4.698264122009277 0.8675068616867065 0.0
0.7578787803649902 0.8698469996452332 0.0
2.479548454284668 0.13692785799503326 0.0
2.4562506675720215 0.8735422492027283 0.0
2.171211004257202 0.3573116958141327 0.0
3.5117530822753906 0.853193998336792 0.0
4.107914924621582 0.8658969402313232 0.0
2.640726327896118 0.354434996843338 0.0
4.346996307373047 0.1279495507478714 0.0
0.3128283619880676 0.11246757209300995 0.0
0.136248379945755 0.12152919173240662 0.0
4.453908443450928 0.8629162907600403 0.0
1.6064813137054443 0.8679171800613403 0.0
0.3380795121192932 0.6626779437065125 0.0
0.5102446675300598 0.875635027885437 0.0
0.7425088882446289 0.2989330589771271 0.0
3.1349449157714844 0.10448489338159561 0.0
1.3287748098373413 0.6181886196136475 0.0
3.871795415878296 0.38215625286102295 0.0
3.229135036468506 0.3810797333717346 0.0
0.28971707820892334 0.8759857416152954 0.0
0.9214505553245544 0.11992674320936203 0.0
1.9219478368759155 0.6237660050392151 0.0
1.530794620513916 0.29603153467178345 0.0
3.072223663330078 0.7044162750244141 0.0
3.6722235679626465 0.7044162750244141 0.0
[...]
POINT_DATA 715
SCALARS Psi double
LOOKUP_TABLE default
0.0
0.0
1.0
1.0
1.0
1.0
1.0
1.0
1.0
1.0
1.0
1.0
1.0
1.0
1.0
1.0
1.0
1.0
1.0
1.0
1.0
1.0
1.0
1.0
1.0
1.0
1.0
1.0
1.0
1.0
1.0
1.0
1.0
1.0
1.0
1.0
1.0
1.0
1.0
1.0
1.0
1.0
1.0
1.0
1.0
1.0
1.0
1.0
1.0
1.0
1.0
1.0
1.0
0.9194701268643842
0.8663185263665658
0.7654430812034735
0.6286591133667292
0.47029378837338204
0.31086056415126573
0.1723012803437956
0.07028074213105426
0.018457123923538297
0.0
0.0
0.0
0.0
0.0
0.0
0.0
0.0
0.0
0.0
0.0
0.0
0.0
0.0
0.0
0.0
0.0
0.0
0.0
0.0
0.0
0.0
0.0
0.0
0.0
0.0
0.0
0.0
0.0
0.0
0.0
0.0
0.0
0.0
0.0
0.0
0.0
0.0
0.0
0.0
0.0
0.0
-0.0
0.0
0.0
0.0
0.0
0.0
0.0
0.02734896949924771
0.1076947866472221
0.20923036888815685
0.3108737330178926
0.4124643251885413
0.5108189461060417
0.6026378631977287
0.6784507895588021
0.6416408218070199
0.5300725636339182
0.5436245451367459
0.5006759711927705
0.49447562717422633
0.470379608392594
0.47067975914435617
0.5083553849136262
0.3204056459106636
0.30604473743437494
0.7747694914087576
0.7665137586212221
0.22671154639528696
0.22260078838109965
0.24317842676064194
0.2269569867269385
0.2548734945136818
0.7930895271956285
0.7927534511195422
0.7905068220182103
0.7982766167794082
0.7598885475734689
0.7873581946571314
0.17508231409964908
0.8544455056450688
0.15683967734403412
0.1430243644583966
0.13751502828322856
0.8816161498316974
0.8776477339194859
0.8765766493127102
0.09063006080919657
0.12162427113162386
0.1217759755159091
0.1353519246065596
0.870129211173164
0.8653413186101029
0.8703588361449868
0.7934741623465368
0.9004038989115402
0.11060299894072158
0.11127131506939911
0.09421888698721771
0.08171417830627699
0.46456847488327135
0.47930943450380176
0.5720539608799192
0.03975348470004671
0.06215171085899961
0.9299597725065605
0.06977676946523695
0.927350029889472
0.9275916895080599
0.49545851294035764
0.07117538328403593
0.5147022318367456
0.5012835146356026
0.5058976741422124
0.5098962553942258
0.5021824112308263
0.4856635290709522
0.5069706876796841
0.49163848638696783
0.5125741125645363
0.5075850818808515
0.5178992466850691
0.05626360365080107
0.9538196167005369
0.9590472804672328
0.03635746279156631
0.95415250819055
0.9595006956947162
0.9429460234558388
0.0276015952801175
0.9639147309315549
0.9568896080332848
0.03992357718825378
0.051297685349013085
0.04066737265645298
0.9655569567716469
0.9620424938344304
0.9589996394108815
0.5407692535603099
0.9786724236433072
0.9709329635115692
0.029483219303111312
0.7353343658364017
0.7344631092757989
0.24289584494153135
0.03679721968991334
0.5292905550473834
0.028810134930371403
0.7490013536816816
0.25080116631712446
0.25489209579999816
0.2870069012140939
0.7194631656947764
0.7254288810768854
0.04344772023332639
0.294796860805192
0.9645741494675305
0.7158764779844975
0.2254163919522868
0.3091688493318382
0.7449125902540537
0.9599618747482861
0.29825989612608006
0.3223267801886715
0.5701835310748694
0.7546242781271363
0.03726300542483363
0.822596790069226
0.025354402852168362
0.02655052533603517
0.024650073999980326
0.2913869301844826
0.0257078702753927
0.5837991128178034
0.7317012409625313
0.27348967860389156
0.2515606212198463
0.733844045161239
0.7335164156181523
0.26893463233769305
0.3294675158452429
0.6686651221149055
0.6747115109894417
0.6741170085432161
0.7092640119144399
0.7867584071512355
0.9791940707035539
0.017514795799734872
0.0018741026163238443
0.02126276574435049
0.0011068185848947553
0.9816458241171401
0.9826928232808789
0.32186908970863765
0.9761372967811838
0.249635618311174
0.33449220980210037
0.9853619908862675
0.019382233322137676
0.9791020499362029
0.9849563134710744
0.02271562465004672
0.9841941606040195
0.2710939868567123
0.9702758314748953
0.9807010512431583
0.2676396639676216
0.005720666472484659
0.006011396593446052
0.022589972307130595
0.9777116433017115
0.981224107953836
0.694234844209187
0.9922280872814294
0.19998964700847457
0.0030451881781803037
0.7057726624988115
0.2968879905872269
0.3015612927005086
1.018756962141501
0.021837244179913236
0.7100644192403548
0.1810219897124393
0.8305013735488279
0.8203855324491441
0.8173582945119067
1.005739454724558
0.6891981232927887
0.0041174870385315195
0.9948183692160806
0.9943926529471007
0.155061987216974
0.3227549108246139
0.18129721714071603
0.9957627068310316
0.0036466529139791066
0.8691657281807466
0.2910548806687446
0.12751176175448783
0.340944325558962
0.011365074677620941
0.16199689823053398
0.9905636668793495
0.9901127923384481
0.12399451861681482
0.18936500912315654
-0.0015324146343861633
0.4395303193126139
-0.003356669681007553
0.40476567640168
0.19016462785312602
-0.0037125153155245128
0.0007995760117003141
0.41036217373186007
0.42630017072398824
0.4146359043057609
0.5925687255470867
0.5911962337217894
0.0031246938170040543
0.5524373967840676
0.0016262484184039582
0.6948160672053809
0.1266188422497801
0.6021285838934622
1.001071513420335
0.807662580715396
0.17323734808073038
0.8052217376038101
0.18141951839898873
0.20003532662609685
0.8172319902808824
0.9983436486916841
0.0016388662535965135
0.13080363290728275
0.8665668098129111
0.1322814464129078
0.3305134691565357
0.6194718990228953
0.8295415458934488
0.10330677631017005
0.4081501013791652
0.4167396762501168
0.6109013477191613
0.5997692718122519
0.5940683048662224
0.020349082639639155
0.6538768535329909
0.13743098039349383
0.8671828446721006
0.864039732036923
0.5959015503564516
0.40863579966847063
0.4224605474917615
0.0038356601077360834
0.589776193458339
0.8686990731248733
0.13290302924516376
1.006321825617526
0.1927262878065283
0.5743224028970656
0.6579475995761107
0.4053642771565966
0.8632032085618437
0.581545247312964
0.9991964780147838
0.4499165155323469
0.9885365634011407
0.9876785935354256
0.8965393467023277
0.867350061532606
0.9585668900451014
0.005795991025886004
0.4240161630083295
0.7082727435123941
0.5768607471179759
0.6828389278538436
0.3652109823631987
0.10263718196432642
-0.001392512931178143
0.4400916103683799
0.21144042758458115
0.8409255733602775
0.5648305492474965
0.44184527200261947
0.44667844315553623
0.8513461493045635
0.8766011140417508
0.13606057881134476
0.12149451850843213
0.86918046711791
0.4087392672917208
0.9990528164389648
0.1423792050506734
0.9063634214773016
0.9076540098567768
0.35557887835309365
0.9178482673248842
1.0040490783307785
0.11255202380736795
0.14107728706703793
0.6787663533012369
0.32381763256499757
0.6800715494437395
0.6896438355182598
0.08406050290454338
0.6698566008771644
0.3345701954771942
0.33395232377621575
0.0065072465277961015
0.4721761911487794
0.26237954901477745
0.7406105812758464
0.7664596626095552
0.3390196592663485
0.8774395140171458
0.6682902119887845
0.6645213408759731
0.6371307957419959
0.007544889772596409
0.007448897582749528
0.12860866670186621
0.8251112722672932
-0.0030581239366684193
0.9160109570285677
0.9162817422691723
0.8495013227790407
-0.0033516550600673554
-0.0027126040999336377
0.19014081650110426
0.3404370611135718
0.00034261852670586744
1.0004157165504637
0.3369938918688656
0.8885444968914206
1.000156983315254
0.8834838729012772
0.11878161606415195
1.005778655153383
-0.0013464556300238142
0.1013107638650862
0.9955481024939402
-0.00040170032050741006
0.31754346268235334
0.0005932871466574308
0.6927052037634579
0.003658473482790218
1.0019181674904976
1.0043887186773213
0.11113663555789478
0.49314571660245593
0.14908663591647583
0.9977587567929854
0.886717350289175
0.9988939767374303
0.32648608448047933
0.9993751928408271
1.002798807403744
0.1333180854298912
0.08748554277056882
9.287879278568716e-05
0.27845392328006774
0.648609103259604
0.5856632641818353
0.41225755067216946
0.564469291164027
1.003994906125695
0.25554027074954394
0.5721834894538443
0.9999252273897589
0.00036814642557540084
-0.0012814287412831894
0.1936431576502461
0.40715802014147306
0.5775979911897947
-0.0017958247060839627
0.9221726235800106
1.0051736832449123
0.8847993547947576
0.09054596513585213
0.9150306347326489
0.9094580731531402
0.6336590411445424
0.07651783761665124
0.8969888158492965
-0.0018973734585569799
0.27684159089484756
0.0026422312229111744
0.9331379790398858
0.06653842431745147
-0.0014619395688094902
0.588842785658075
0.5399688851376423
1.0041988462133378
1.0154459012696333
1.0014370174282805
0.001313227426539139
0.4332339580765598
0.6801720675451494
0.6879593063536423
0.6822686682408106
0.3192926265407112
0.31560064495859574
0.3285365540429308
0.9441216248487666
1.035379516663438
0.9973909011848937
0.9947852735934601
0.963498072514002
0.6847779591685058
0.7573597934957955
-0.0019080812004655763
0.06494566501152689
0.7910462393120372
0.7074206626664914
0.22828307120545535
0.8726694318866651
0.08353075290767067
0.0751674280745631
0.7187880871524118
0.6223184241677956
0.4344839537279134
0.9980589313245839
1.001163050461496
0.775669054211695
0.10035579033766905
0.9315027686973402
0.2097634918868054
0.9525105462303176
0.05247349731283337
1.0003170964950001
0.0021535495492823633
0.3655862430002865
0.6133898779926903
0.35912832851089166
0.8332940506793366
0.04116675734060595
0.5914077461953993
0.37552746766121503
0.839537402309595
-0.0011353964979896971
-0.003444220630801357
0.18944911181126758
0.17280946345534023
0.05598036715804206
0.1032154532715628
0.9457121311827987
0.841974414636393
0.1591301418895612
0.801691014590827
0.20308791332529955
0.9068482346609009
0.9044696289878666
0.903766097992068
-0.004561589433513281
0.9414683323970234
0.35873165850854444
0.21548563405071305
1.0004420950281505
0.1679919642488615
0.5583232398962295
0.7152402050693469
0.611603379336697
0.6411276241591581
0.04317124788037378
0.9526881791151498
0.9521201203296161
0.05466661460854536
0.6962950550715677
-0.006147943692683341
1.0057481586660448
1.003626509455378
0.03691195274576258
0.04063259692400122
0.8955759323334828
0.25192082810896255
0.9486530622013222
0.4500653092360967
0.8605236221012065
-0.0003982872607012405
0.6446891965361778
0.3552784384796891
0.365297282259119
1.0010985683091063
-0.002070003004876107
0.5573405494618572
-0.007555572469998791
0.41322036516787525
0.06739090459377715
-0.0011414254542754184
0.23355694777705294
0.6274232791811243
0.7203128279181713
0.7849660360750268
0.9501455519700379
0.04743491166175154
0.23995971788950832
0.1833050655607964
0.7698415641395256
1.0044049136217297
0.2331320542925247
0.06769018223452714
0.1836640205779671
0.052890199204097266
0.930527899688175
0.04612219148654646
0.2093809181034341
0.788421288780736
0.7929611919089647
0.80112426701065
0.4076817664623964
1.0058766788658424
0.36954600030498513
0.9182769541561059
-0.0011842941372190853
0.0503094878498773
0.03915478923003954
0.5963303839494475
0.06957836782744621
0.0020980218914451554
0.05988046341563463
0.08157796227526636
0.4118233693087461
0.5628297906008192
0.029547956123638187
0.19218345982248963
-0.0018223375557877154
1.0000536100414996
0.9189232846808641
0.43381499369174464
0.5718196880591224
0.627626516074784
0.9393287971644179
0.05103021405237627
0.049884289433952324
0.998243269436178
0.030185168935888664
0.5060820352673878
0.3236987978326113
0.1187036851724036
-0.0007838502451002837
0.7918072148290967
0.9494511473030022
0.14373152494703417
0.12538917639051225
0.8545611334167381
1.0017249610227525
0.04471569315127694
0.9440761139027855
0.9438763453238315
0.44393670614398123
0.4429146831615971
1.0007666765213623
0.21417831775129312
0.33467711755244767
0.37456282454739787
0.0002610765586242458
0.9681835968342138
0.9689338065974611
0.2445555282579634
0.59887376736494
0.8341147391203552
0.8359218467030047
0.18890223734154035
0.8309638482959889
0.23073903369946988
0.8831846889109826
0.8820756019595366
0.6197079341299748
0.8947735951999538
0.6200332289210387
0.05096517472532725
0.9505933671174618
0.3916098708629388
0.6235721930133109
0.3767379343872673
-0.007113001861181521
0.3126971875091674
0.056831338443371585
-0.00044021230805309995
0.5686875381597745
0.11511731602707873
0.22029110727645257
0.08609443103949127
0.8003123519503859
0.8744986494903029
0.9760305635407864
0.5850039633923582
0.003257464031477316
0.40369871888071907
0.07770085427530678
0.9991908414111685
1.0001785439256197
-0.0009178556405185421
0.05792892563886743
0.9465651469202602
0.00041398585296307307
-0.0040749641783271225
0.23332605996473044
0.7684685012544702
0.4368649478402354
1.002769912142307
0.22174829545332253
0.8205411213018323
0.1967791270229612
0.8093226800621086
0.19052621533316752
0.9786946374148437
0.0016150107080990328
0.40740240111673204
1.0008861818571313
0.9587277834938792
0.04283342328921883

SCALARS Omega double
LOOKUP_TABLE default
-7.676492064948508
-1.1798352939748697
8.583935985786983
15.920190088971617
36.51090156273183
-6.477758564141709
2.4232644088663418
-4.4647101510258125
-0.4278295900473843
1.9235458333035664
0.04830180642579628
-0.636715173877226
0.4852387547106374
1.1462187397092494
0.2318423139464576
0.8262152148999056
0.5476133278093621
0.7961319771896517
1.5582021713071332
-0.08704416781466102
1.4176299147757077
1.2459795658776307
-0.4095068752346678
0.49158415010105344
1.0670249213577965
1.0383334510345956
0.7630979846733695
0.239308628607468
0.46051021144840126
1.4191123723609491
1.1073079188584554
0.1615072087789067
1.3299841032316069
0.8626469046980305
0.4162593627233725
1.1155433031483168
0.7547302605261437
0.3786942383210016
1.3069878366935952
0.6770106825347719
1.3719478343161131
0.6904009253133151
0.4346864836536319
0.3506819159059154
0.9366825539425188
0.720564294307857
2.110236851438211
0.46276720124127174
-0.45771553362778894
2.150386506609228
0.8649650172095343
1.8546285339062074
9.577263257033698
-7.8572374188531695
0.5780290236908279
2.8844301672420145
1.6507453120416542
-0.1070498139908716
-1.1773132713084415
-2.664249034207317
-3.317276843203792
-1.5374043227635283
-0.25052848669307953
-0.6462298597058926
-1.0512158100763076
-0.13955481453204963
-0.7012801936036241
-0.3836667411827412
-1.065254788542376
-0.8176173847169638
-0.31108854211478154
-0.71957338704596
-0.4583417319143985
0.09603815316238032
-1.7629831356207395
-0.6494271819646898
0.38730882530138555
-1.4885410281651958
-0.5982550979346948
-0.30216959241857533
-1.1027161724950305
-0.8054804996300193
-0.4270950887847247
-1.1002994096709766
-0.8842421354952753
-1.4112663273367512
-0.17477745393691102
-0.5612602878856386
-0.9665576481405456
-1.0799053432958639
-0.7442280418676663
0.6840115530044959
-1.3958929515337524
-1.2258537175150162
0.202657986506567
-0.8516218511271616
-1.1192493424577548
-0.16248526389387125
-0.5574720223809075
-1.5261696273750738
-1.5308021986357612
-0.39310290655990765
-1.9060623392741407
-0.48589077241175904
-2.0720998778629034
-0.4987622206616227
-0.13993119415185135
-2.069484721404114
-1.9109491412163258
-0.819031829496244
0.7511249010788826
-4.592710367557661
2.6458101015773408
0.3120429492398134
-0.025401128735574603
-0.8569634039637505
1.649789457535299
-5.8892592204018515
-2.3403965901285653
-42.6083421968302
-0.5123566952929194
0.5158868279843315
0.10235608613908194
-0.07333232761566037
-0.2798816453709639
-0.27830261943050605
0.11215858848656225
-0.3761318173286728
-2.023070168617083
3.1287445815265817
2.8780487743898275
-2.9696392542890657
-2.972587623219399
-2.7289926680666623
-2.852430269026999
-2.0454273562419365
3.1637956853655953
3.203790973489596
3.16532782921327
3.175864424360135
2.317217037535547
3.202849389333211
-3.5913340222839767
3.9928799033210916
-2.5860572129029715
-4.1846815391099605
-4.159886258613206
5.21579807126362
4.355995100486698
4.1778852585021395
-4.838274009812459
-4.451600494133057
-4.3374074263279025
-4.100396525698369
4.33302002947701
4.148629917792833
4.380838653304062
1.9688280345737545
4.65585145308519
-3.9676247614707085
-1.702844645281193
-4.752479961361063
-5.0805783535326094
-1.4216909522620125
-0.22235757892993221
0.7664137451847647
-6.28055904796017
-5.446656110119785
5.051922896774188
-5.152140182104132
5.25996729887611
5.077959035446504
-1.2640854883857613
-4.899433814244359
0.22150684192636017
0.13491002603015267
0.07313562897837353
-0.17005735117431728
0.05069168909174547
-0.15945581435080852
0.06497334284222335
-0.07959348201867451
0.15503077435219623
0.19579916234996964
0.20255592458144475
-5.600107406012517
5.374956747214177
7.33185859453927
-5.743831758920847
5.837404548217005
5.868102364261746
6.141889410189457
-5.316537951373793
5.64115470656141
5.241848105168933
-5.5746306073970775
-5.4545698972474215
-6.3848066667992684
6.50443993173571
5.6053281884520825
5.734214975650706
0.39616211763062714
13.251646764359482
5.600752769231977
-5.53555224987922
2.4927241541673886
2.2674454474148114
-2.7256356266580855
-5.439318130894188
-2.341033173677851
-5.89807990046161
2.709467369509883
-2.642047462991145
-2.5867222815484063
-1.8808959285975266
2.305630975294736
2.4191750209926477
-5.560053367956847
0.08634807393970485
6.055374507460393
2.0673096041865158
-2.5801860351375567
-1.9785615925980382
2.612716654199197
5.629288161347846
-2.040585919748908
-1.2681062652048025
0.7594346244636446
2.709681162617365
-6.110428285853512
-1.866314154942279
-6.134031103278025
-6.048175577611727
-6.244318645261755
-2.193254561450766
-6.096887501142064
-4.518057919079134
2.4878081380959314
-2.3763163451495797
-2.6538843425707292
2.564235207923579
2.4926591717574107
-2.464643417925203
-1.5502847046774018
1.7495933595084006
1.8499303474486175
1.8240081030261246
2.206883922608161
3.1062833969291996
5.701968376731292
-6.449472813762148
-7.414797242515066
-6.6414275771864535
-8.337953541445549
6.22274110232609
6.750005388999106
-1.8055546520723793
6.642334470540023
-0.913606249968266
-1.006926158926591
6.533333813624456
-5.280370961512318
7.895040404511599
6.006212660566719
-6.037077010223929
5.582034329810481
-2.4217235435239415
5.573714681953384
6.933977958650036
-2.461700034267016
-8.264536754485814
-10.849642556538917
-8.805218902577982
6.487428461334078
5.738331117030955
-1.035735410720515
7.100491417216456
-2.1677958062101106
-7.729744669358813
2.2347227555845417
-2.1285614934700656
-2.0722778242784
23.702487212141033
-6.2148513002831525
2.2407941474447592
-3.4717344564631385
3.7109703886489775
3.5083468801919917
3.5092871360325684
7.4547519820196895
1.626732352728321
-8.213994038736773
8.236667559606909
6.790250593333695
-1.4502499513835343
-1.8541183770065675
-3.546007897296161
6.684365476439519
-6.595391186216912
4.182617129101373
-2.204890249069247
-3.7599182665577917
-0.4460117517164647
-6.201129335012286
3.282486099435941
7.426150577470692
5.5733986075320745
-4.355950228116347
-3.4198243862988824
-9.953777064691975
-0.5854304500917855
-7.907049115842564
-1.4071391521860936
-3.3797420466745822
-8.542558414341546
-7.743028240865124
-0.920589371588945
-0.7313442195938371
-0.845097457193574
0.7767196806664027
1.0279357986591695
-7.091659944030868
1.4955096769786487
-9.01585174310259
2.063094115742721
-4.2605522394814495
-4.132634636596423
9.37264277165301
3.399941024967172
-3.113477744471844
3.3822553473648265
-3.4926248636225328
-3.277913760572852
3.4782366343999835
6.706932135798742
-6.295502279937977
-4.294777929598475
4.1570297954036395
-4.178530872547434
-1.2838681900923226
1.2199595841844457
6.267365321565232
-9.974968595075918
-0.7854932069638548
-0.7307119857106561
1.14468241238226
1.0596500817944745
0.9565299910844254
-6.702207177019224
-8.023521371651086
-3.908808757511213
4.248422856398649
4.145836603273638
0.9930228164449736
-0.9254491180444223
-0.7699667734844059
-8.592604213552745
1.0029189681198916
4.409673894686324
-4.190031299881586
9.351161670436461
-3.3754743760691714
-0.4402307935427821
0.20501642930822964
-0.9833641356837363
4.028090031691738
0.24151606287647623
8.35332611329811
-0.46474811313993514
6.47901791101371
6.0726532378397895
4.547665496166002
5.499138337365254
2.5446321587105456
-7.403375931144976
-1.2886385224034047
2.175572328358017
0.8578444225867872
1.9253336252841717
-2.335664183341999
-4.634603466325934
-10.00429756675
-0.6309353172855581
0.7356104097035444
3.7314773951942946
0.7410265987179566
-0.5678024502721891
-0.518523110809153
5.486295696092154
4.904111936879874
-4.114332216952579
-4.265207009526496
4.058918302434468