# vtk DataFile Version 1.0
2D Simulation C++
ASCII
DATASET UNSTRUCTURED_GRID
FIELD FieldData 1
NODES 1 2 int
715 1308

POINTS 715 double
0.0 0.0 0.0
5.0 0.0 0.0
5.0 1.0 0.0
0.0 1.0 0.0
0.10000000149011612 1.0 0.0
0.20000000298023224 1.0 0.0
0.30000001192092896 1.0 0.0
0.4000000059604645 1.0 0.0
0.5 1.0 0.0
0.6000000238418579 1.0 0.0
0.699999988079071 1.0 0.0
0.800000011920929 1.0 0.0
0.8999999761581421 1.0 0.0
1.0 1.0 0.0
1.100000023841858 1.0 0.0
1.2000000476837158 1.0 0.0
1.2999999523162842 1.0 0.0
1.399999976158142 1.0 0.0
1.5 1.0 0.0
1.600000023841858 1.0 0.0
1.7000000476837158 1.0 0.0
1.7999999523162842 1.0 0.0
1.899999976158142 1.0 0.0
2.0 1.0 0.0
2.0999999046325684 1.0 0.0
2.200000047683716 1.0 0.0
2.299999952316284 1.0 0.0
2.4000000953674316 1.0 0.0
2.5 1.0 0.0
2.5999999046325684 1.0 0.0
2.700000047683716 1.0 0.0
2.799999952316284 1.0 0.0
2.9000000953674316 1.0 0.0
3.0 1.0 0.0
3.0999999046325684 1.0 0.0
3.200000047683716 1.0 0.0
3.299999952316284 1.0 0.0
3.4000000953674316 1.0 0.0
3.5 1.0 0.0
3.5999999046325684 1.0 0.0
3.700000047683716 1.0 0.0
3.799999952316284 1.0 0.0
3.9000000953674316 1.0 0.0
4.0 1.0 0.0
4.099999904632568 1.0 0.0
4.199999809265137 1.0 0.0
4.300000190734863 1.0 0.0
4.400000095367432 1.0 0.0
4.5 1.0 0.0
4.599999904632568 1.0 0.0
4.699999809265137 1.0 0.0
4.800000190734863 1.0 0.0
4.900000095367432 1.0 0.0
5.0 0.8999999761581421 0.0
5.0 0.800000011920929 0.0
5.0 0.699999988079071 0.0
5.0 0.6000000238418579 0.0
5.0 0.5 0.0
5.0 0.4000000059604645 0.0
5.0 0.30000001192092896 0.0
5.0 0.20000000298023224 0.0
5.0 0.10000000149011612 0.0
4.900000095367432 0.0 0.0
4.800000190734863 0.0 0.0
4.699999809265137 0.0 0.0
4.599999904632568 0.0 0.0
4.5 0.0 0.0
4.400000095367432 0.0 0.0
4.300000190734863 0.0 0.0
4.199999809265137 0.0 0.0
4.099999904632568 0.0 0.0
4.0 0.0 0.0
3.9000000953674316 0.0 0.0
3.799999952316284 0.0 0.0
3.700000047683716 0.0 0.0
3.5999999046325684 0.0 0.0
3.5 0.0 0.0
3.4000000953674316 0.0 0.0
3.299999952316284 0.0 0.0
3.200000047683716 0.0 0.0
3.0999999046325684 0.0 0.0
3.0 0.0 0.0
2.9000000953674316 0.0 0.0
2.799999952316284 0.0 0.0
2.700000047683716 0.0 0.0
2.5999999046325684 0.0 0.0
2.5 0.0 0.0
2.4000000953674316 0.0 0.0
2.299999952316284 0.0 0.0
2.200000047683716 0.0 0.0
2.0999999046325684 0.0 0.0
2.0 0.0 0.0
1.899999976158142 0.0 0.0
1.7999999523162842 0.0 0.0
1.7000000476837158 0.0 0.0
1.600000023841858 0.0 0.0
1.5 0.0 0.0
1.399999976158142 0.0 0.0
1.2999999523162842 0.0 0.0
1.2000000476837158 0.0 0.0
1.100000023841858 0.0 0.0
1.0 0.0 0.0
0.8999999761581421 0.0 0.0
0.800000011920929 0.0 0.0
0.699999988079071 0.0 0.0
0.6000000238418579 0.0 0.0
0.5 0.0 0.0
0.4000000059604645 0.0 0.0
0.30000001192092896 0.0 0.0
0.20000000298023224 0.0 0.0
0.10000000149011612 0.0 0.0
0.0 0.10000000149011612 0.0
0.0 0.20000000298023224 0.0
0.0 0.30000001192092896 0.0
0.0 0.4000000059604645 0.0
0.0 0.5 0.0
0.0 0.6000000238418579 0.0
0.0 0.699999988079071 0.0
0.0 0.800000011920929 0.0
0.0 0.8999999761581421 0.0
0.7496038675308228 0.5164291858673096 0.0
1.3451675176620483 0.5190238952636719 0.0
1.9462687969207764 0.4963642954826355 0.0
4.456614971160889 0.5060901641845703 0.0
3.864220380783081 0.4866538345813751 0.0
3.249823808670044 0.482722669839859 0.0
2.6500000953674316 0.5 0.0
0.3810288906097412 0.399004191160202 0.0
2.308779239654541 0.3797946870326996 0.0
1.0499999523162842 0.6625000238418579 0.0
1.644740104675293 0.6598879098892212 0.0
4.150000095367432 0.3375000059604645 0.0
3.555316209793091 0.3343118131160736 0.0
2.9446933269500732 0.3401789665222168 0.0
1.6342840194702148 0.3290160894393921 0.0
1.0591840744018555 0.33908534049987793 0.0
2.9654481410980225 0.6753292679786682 0.0
3.5534629821777344 0.6835107207298279 0.0
4.153462886810303 0.6835107207298279 0.0
2.2139804363250732 0.6805098056793213 0.0
0.4914395809173584 0.6739721894264221 0.0
4.691666603088379 0.6916666626930237 0.0
4.691666603088379 0.3083333373069763 0.0
2.4872219562530518 0.7236665487289429 0.0
0.6240421533584595 0.2677222192287445 0.0
2.0697431564331055 0.2657754421234131 0.0
2.5389034748077393 0.26082900166511536 0.0
0.8147311806678772 0.7450684309005737 0.0
1.2897310256958008 0.743314266204834 0.0
1.8853894472122192 0.7450258731842041 0.0
4.382374286651611 0.23655959963798523 0.0
3.910269021987915 0.25668570399284363 0.0
3.1838724613189697 0.25397706031799316 0.0
1.398239254951477 0.2614254057407379 0.0
3.201760768890381 0.7385746240615845 0.0
3.8017609119415283 0.7385746240615845 0.0
4.39177942276001 0.7466779351234436 0.0
0.25301694869995117 0.7458874583244324 0.0
2.7258167266845703 0.7600342631340027 0.0
0.84163498878479 0.2263137847185135 0.0
0.22429518401622772 0.22429518401622772 0.0
2.7605957984924316 0.22504857182502747 0.0
1.8330284357070923 0.2150011658668518 0.0
0.2192869633436203 0.5323538780212402 0.0
4.7908525466918945 0.5038931369781494 0.0
2.466000556945801 0.5376454591751099 0.0
3.7061264514923096 0.17723728716373444 0.0
3.3929696083068848 0.20266839861869812 0.0
1.4905184507369995 0.7937026619911194 0.0
1.2104878425598145 0.20361483097076416 0.0
3.9895122051239014 0.7963851690292358 0.0
3.389512300491333 0.7963851690292358 0.0
0.5652223825454712 0.5070380568504333 0.0
0.44509074091911316 0.19716571271419525 0.0
2.1318352222442627 0.5042122602462769 0.0
1.548349142074585 0.4954715371131897 0.0
3.050636053085327 0.5004673004150391 0.0
0.9511125087738037 0.498258113861084 0.0
3.651650905609131 0.5045284628868103 0.0
4.248488903045654 0.4980509281158447 0.0
1.1537858247756958 0.49593159556388855 0.0
4.050199031829834 0.49993085861206055 0.0
3.464722156524658 0.509624183177948 0.0
1.749653697013855 0.5001751780509949 0.0
2.851828098297119 0.5057260394096375 0.0
2.359710216522217 0.1888567954301834 0.0
2.0499017238616943 0.8199846148490906 0.0
0.6430503129959106 0.8181284070014954 0.0
4.560274600982666 0.1724673956632614 0.0
4.55863094329834 0.8299665451049805 0.0
2.321284055709839 0.8242537379264832 0.0
4.815218925476074 0.8345447778701782 0.0
4.837246894836426 0.16590170562267303 0.0
0.9682294130325317 0.8331464529037476 0.0
1.730908751487732 0.827606201171875 0.0
4.220076560974121 0.17516615986824036 0.0
3.02066969871521 0.18326662480831146 0.0
1.5634372234344482 0.17044226825237274 0.0
3.035303831100464 0.8294908404350281 0.0
3.627507209777832 0.8360387086868286 0.0
4.2312469482421875 0.8315803408622742 0.0
4.618130683898926 0.5361976027488708 0.0
0.40311703085899353 0.8369210362434387 0.0
1.1473191976547241 0.8458209037780762 0.0
4.052680969238281 0.15417908132076263 0.0
2.020958423614502 0.6394158005714417 0.0
0.662188708782196 0.6447370648384094 0.0
4.5115838050842285 0.3538685142993927 0.0
1.0221220254898071 0.15309639275074005 0.0
0.3837882876396179 0.5515117049217224 0.0
3.548090934753418 0.15800617635250092 0.0
1.4348299503326416 0.6465393304824829 0.0
3.765170097351074 0.3534606993198395 0.0
3.3348300457000732 0.3534606993198395 0.0
1.2546738386154175 0.36384353041648865 0.0
3.945326089859009 0.636156439781189 0.0
3.3412928581237793 0.637225866317749 0.0
2.1904795169830322 0.17066854238510132 0.0
0.16392111778259277 0.38331863284111023 0.0
2.87723445892334 0.8265392184257507 0.0
4.8459792137146 0.6499902606010437 0.0
4.845625400543213 0.34837812185287476 0.0
2.771622896194458 0.38129922747612 0.0
4.5222978591918945 0.6578375697135925 0.0
2.604464530944824 0.8240283727645874 0.0
1.8544400930404663 0.3751189708709717 0.0
0.8566747903823853 0.38255012035369873 0.0
2.2932615280151367 0.5369129776954651 0.0
2.620572805404663 0.6496497392654419 0.0
0.7172287106513977 0.1490369737148285 0.0
0.1410960853099823 0.8303417563438416 0.0
1.7142322063446045 0.142862930893898 0.0
2.6314175128936768 0.14492936432361603 0.0
1.9832650423049927 0.1408119648694992 0.0
2.445650577545166 0.370038241147995 0.0
2.885042667388916 0.1455758661031723 0.0
0.13937503099441528 0.6546638011932373 0.0
0.9110832810401917 0.6349053978919983 0.0
3.088575839996338 0.3613528311252594 0.0
4.296638011932373 0.3563385307788849 0.0
1.1930090188980103 0.6355591416358948 0.0
1.788455843925476 0.6387236714363098 0.0
4.006990909576416 0.3644408583641052 0.0
1.4459187984466553 0.39242905378341675 0.0
4.354081153869629 0.6075709462165833 0.0
3.7540812492370605 0.6075709462165833 0.0
3.1591691970825195 0.6018876433372498 0.0
2.7615907192230225 0.6205627918243408 0.0
2.36276912689209 0.6735464930534363 0.0
1.3681535720825195 0.8630191683769226 0.0
3.8318464756011963 0.1369808316230774 0.0
3.275517463684082 0.10712132602930069 0.0
0.5630941987037659 0.12814241647720337 0.0
1.3237862586975098 0.10638008266687393 0.0
3.2733232975006104 0.8705052733421326 0.0
3.8733232021331787 0.8705052733421326 0.0
2.0396511554718018 0.38928428292274475 0.0
2.2168734073638916 0.8508136868476868 0.0
0.5163488388061523 0.3409615159034729 0.0
0.6547463536262512 0.3955095112323761 0.0
1.9480526447296143 0.8710126876831055 0.0
4.689375877380371 0.13700176775455475 0.0
4.698264122009277 0.8675068616867065 0.0
0.7578787803649902 0.8698469996452332 0.0
2.479548454284668 0.13692785799503326 0.0
2.4562506675720215 0.8735422492027283 0.0
2.171211004257202 0.3573116958141327 0.0
3.5117530822753906 0.853193998336792 0.0
4.107914924621582 0.8658969402313232 0.0
2.640726327896118 0.354434996843338 0.0
4.346996307373047 0.1279495507478714 0.0
0.3128283619880676 0.11246757209300995 0.0
0.136248379945755 0.12152919173240662 0.0
4.453908443450928 0.8629162907600403 0.0
1.6064813137054443 0.8679171800613403 0.0
0.3380795121192932 0.6626779437065125 0.0
0.5102446675300598 0.875635027885437 0.0
0.7425088882446289 0.2989330589771271 0.0
3.1349449157714844 0.10448489338159561 0.0
1.3287748098373413 0.6181886196136475 0.0
3.871795415878296 0.38215625286102295 0.0
3.229135036468506 0.3810797333717346 0.0
0.28971707820892334 0.8759857416152954 0.0
0.9214505553245544 0.11992674320936203 0.0
1.9219478368759155 0.6237660050392151 0.0
1.530794620513916 0.29603153467178345 0.0
3.072223663330078 0.7044162750244141 0.0
3.6722235679626465 0.7044162750244141 0.0
[...]
POINT_DATA 715
SCALARS Psi double
LOOKUP_TABLE default
0.0
0.0
1.0
1.0
1.0
1.0
1.0
1.0
1.0
1.0
1.0
1.0
1.0
1.0
1.0
1.0
1.0
1.0
1.0
1.0
1.0
1.0
1.0
1.0
1.0
1.0
1.0
1.0
1.0
1.0
1.0
1.0
1.0
1.0
1.0
1.0
1.0
1.0
1.0
1.0
1.0
1.0
1.0
1.0
1.0
1.0
1.0
1.0
1.0
1.0
1.0
1.0
1.0
0.9188611188634326
0.8642606399669572
0.762655116674494
0.6274511509709757
0.47233047027666064
0.3158465083496944
0.17785456542393135
0.07383932527581262
0.0195654576186022
0.0
0.0
0.0
0.0
0.0
0.0
0.0
0.0
0.0
0.0
0.0
0.0
0.0
0.0
0.0
0.0
0.0
0.0
0.0
0.0
0.0
0.0
0.0
0.0
0.0
0.0
0.0
0.0
0.0
0.0
0.0
0.0
0.0
0.0
0.0
0.0
0.0
0.0
0.0
0.0
0.0
0.0
-0.0
0.0
0.0
0.0
0.0
0.0
0.0
0.027348029590700162
0.10769227933500448
0.209226006756899
0.31086761378447736
0.41245693987907267
0.5108111938687895
0.6026301163311995
0.6784432300522181
0.6416368123814087
0.5299073673123136
0.5428845034496489
0.5008343561254893
0.4940187062145881
0.4683705789285828
0.47059958017785297
0.5120096570650293
0.32037459919374833
0.3113097585531248
0.774344891570801
0.7634305515487234
0.2290646621676752
0.22378240058165033
0.2478847237235466
0.2288317087124788
0.25495002877261014
0.7916755951736041
0.7880621137665448
0.78544568358046
0.7966668842874574
0.7598076701140332
0.7837078369132673
0.18004811683423638
0.8538746139683043
0.15677981377969125
0.14663506398809112
0.1422665878352036
0.8815144239005579
0.8766838635416127
0.8742671345237628
0.09296645968914673
0.12327790948313085
0.12386376909110901
0.13613456104178892
0.8676873884225643
0.8613538069865381
0.8669258266433321
0.793450657939254
0.8998931712346205
0.11054112133016115
0.11126833207568425
0.0977292677067627
0.08353885005212316
0.46455338537047075
0.48100848975537097
0.5743991932701403
0.04021780784213033
0.06288675996747974
0.9288309977268857
0.06989176523601567
0.924733733571577
0.9254433601095267
0.4953564053056815
0.07116512769279558
0.5158088058549631
0.500561824180636
0.5071533419653398
0.5096883004688466
0.4996081614940278
0.4844064765779164
0.5066779917727855
0.4896263193189269
0.5104197888544373
0.5068894959891884
0.5205546266877996
0.05833334744303442
0.9530207965123715
0.9590130159142848
0.03767964182558298
0.9527863920081698
0.9591708552067266
0.9413627216857762
0.02949997891062837
0.9639071186846906
0.9560010521946337
0.040852817009302766
0.05274644364878434
0.04117331118432505
0.9650661455802277
0.960814299615261
0.9575315325300268
0.5401704862373921
0.978667118716784
0.9709048100028354
0.030065519328001035
0.7328735355805951
0.7343307097849859
0.24688113904937126
0.03678020966430042
0.5292431058293792
0.02907634619806715
0.7468343369670452
0.2518952574986698
0.2566335945654644
0.287386429244219
0.7142212207832843
0.7216779595402842
0.044984651691913395
0.2947897233751088
0.9643275318437841
0.7125985288388449
0.23182206620009968
0.3148550515115921
0.7408651816469713
0.9597932984255746
0.3007896617046466
0.322212538756253
0.5715704646030696
0.7546000961764692
0.037240781090855296
0.8225875595114135
0.025841108336585254
0.02773589946299125
0.025387479731128582
0.29731541801514605
0.026572844464343763
0.5837885599936132
0.7314581790858283
0.2768628816386299
0.2542886389265218
0.7329936908459176
0.7304522916481704
0.27046503810378825
0.3301458693225495
0.6647338435665385
0.6698901384073479
0.6721042053431184
0.7095096541949244
0.7860566874161742
0.9791175963137354
0.017705577530194066
0.0017483006480022423
0.02125973036147392
0.001018373341293841
0.9812335113695622
0.9821284072126993
0.32528319246537746
0.975927400522155
0.24958060915414298
0.33438550584367827
0.9852097313737083
0.02006030575695518
0.9784849732436236
0.9849390716009327
0.023544480807714974
0.984139088352933
0.2757570378803746
0.9693489129061724
0.9799520027995937
0.2738122137889055
0.0057692451867545945
0.006013760493007337
0.022589799695030444
0.9770850123646349
0.9810061798198143
0.6941912901848436
0.9922313158634828
0.19990000932838878
0.002977619685264014
0.7043497032198759
0.29770160329283735
0.30361811040123804
1.018761642540544
0.021816912971697282
0.7074283421195847
0.18241006661342007
0.8285022420918359
0.8158669274169749
0.8129272697136282
1.0059488974845519
0.6890204253504808
0.004077198296001943
0.9947289436662011
0.9943923046615133
0.15505033379217015
0.32708536337549976
0.18466559661189097
0.9958529040686531
0.003613554137279286
0.8681955194496241
0.29388847420375347
0.12750252144487037
0.3409286895249205
0.011690491485610799
0.16199339164941765
0.9905236511148046
0.9901086331664237
0.12792319086252976
0.1918605183646017
-0.0016019815598635211
0.4442833874876566
-0.0036185043024372842
0.40475729989149484
0.19527778043303232
-0.003845886148453873
0.0006456933267061568
0.4102458489882951
0.4296513277785046
0.41366303411056243
0.5922157523167498
0.5893184888337746
0.0030965534901182803
0.5525358231838002
0.001603359614769045
0.6954565528542264
0.13131667508252903
0.6021083721704552
1.0012628599238305
0.8027324092415612
0.17345516821750825
0.80100415734791
0.18289822224436475
0.20121143609794923
0.8145982794862676
0.9983690816111808
0.0015233609597457968
0.13227693426201712
0.8650455126471417
0.13407391652088055
0.33044406003964827
0.6176081006384961
0.8258454023516852
0.10905531272680645
0.40860954217072715
0.41664153369559803
0.6113157839593719
0.5959981819574353
0.5904815473859191
0.020320443569346574
0.6538685969551112
0.13794903467569883
0.864178921721764
0.8598394469740559
0.5951533398771056
0.40795694774775665
0.42401161348422695
0.003620115716979649
0.588084891715917
0.8682134851858211
0.13513642937855389
1.006547049568819
0.19814204904670732
0.5741837203420421
0.6578355140317889
0.4073404742164352
0.8610342209635431
0.5813361085203085
0.999413030770669
0.4537492187824844
0.9881966915574161
0.9873754117654125
0.8944804639562404
0.8672565120314357
0.9582212547069967
0.006332409582816326
0.42395759488626256
0.7080664166053225
0.5763094939011316
0.6813915692738689
0.3700629061669831
0.10573291691957032
-0.0013898025305770449
0.4402730694281671
0.2114317339903007
0.8388707159480343
0.5636601997158023
0.44024451259766795
0.44616549613986944
0.8512613795551253
0.8764645542301001
0.13882455584195924
0.12404731100624543
0.8666412252152936
0.4124042648943591
0.9991294471784985
0.14233965893289835
0.9035151304423292
0.9045743077443833
0.3605230893117373
0.916927555075483
1.0040551763737304
0.11566193655728603
0.14505703147920665
0.674370284891682
0.3248148685660551
0.6752649208896925
0.6882564754631231
0.08542695534794315
0.6674968919386316
0.3345736884193082
0.3344264451223496
0.0065087119454578886
0.476169195306715
0.26308599249753173
0.7353828533426909
0.7633341463469905
0.34059546376800465
0.8769249669050591
0.6641978669523291
0.6597799748394287
0.6339314009659208
0.007702127053467461
0.007514047474651233
0.13357351773408202
0.821538986522878
-0.003156173451905312
0.9159698142868842
0.9154190419318962
0.8460397281981522
-0.0035092941872079315
-0.0029257386386151887
0.19011460869558314
0.34312410074435035
2.3361134902518598e-05
1.0004648034386638
0.33686796901902594
0.8854613970098268
1.0002452191045357
0.8832784860070718
0.1210120826195349
1.0059358684503994
-0.0017176902176261309
0.1050029002828493
0.9954037830189978
-0.0005552369635040056
0.3177283367023998
0.0006011102583629297
0.6894116906368227
0.0037073601425855677
1.0021167504445982
1.0045648809690315
0.11219438036037252
0.4931375172356793
0.15324090214934635
0.9978491836162647
0.886016503756331
0.9989090538049589
0.3313537097761219
0.9993577590871078
1.0028088920034681
0.13338418950737552
0.0884381881027676
6.67645743305476e-05
0.28273732824375986
0.6492958606651168
0.5855822719087992
0.41227541392637457
0.5609365696127753
1.0040697998951298
0.2555350308658638
0.5704511391268271
0.999983194217852
0.0002715153149909356
-0.0014054383711101135
0.19358995621074485
0.4071261338086606
0.5800878528222997
-0.0019038290466939
0.9196263857303157
1.0053945333895948
0.884772902479372
0.09138708177395077
0.9134885133176702
0.9065052213831708
0.6351184160448229
0.07926311173962389
0.8943655151643779
-0.0018954516825127525
0.2832349878249054
0.002593336108744085
0.9327758828412227
0.06773639830961181
-0.0015476075644117807
0.5865031683237922
0.5399409917614477
1.0043286837713552
1.0154552701659707
1.0015735882404138
0.0012853279786752296
0.4339627352495881
0.6798526599819414
0.6873709974527887
0.6794321061243169
0.32092900957591103
0.3168789047731904
0.3323098712875256
0.9438140472377465
1.0353837501255483
0.997381953252884
0.9946415376210204
0.9633753275428493
0.6847134021848021
0.7570887393192677
-0.0021161407514424164
0.06492042856505104
0.7906684797236596
0.7044536950331877
0.23476922396419783
0.8726668673940051
0.08640699647772702
0.07661217898673192
0.7181900899644946
0.6178912553856283
0.43432844977427587
0.9981807424645418
1.0013331632731526
0.7713587068266831
0.10029525809902923
0.9305167340958225
0.21552820137704745
0.9522383825734685
0.05467664902374817
1.000407335028904
0.002153557252283406
0.3690045820280999
0.6119453115519945
0.3648149144392405
0.8332437578123606
0.042391559267203144
0.5917766478986208
0.3755163863150131
0.8366540044916885
-0.0012406695673519781
-0.003655348072001271
0.18944459740187633
0.1765365086223721
0.05657604015582264
0.10599367247028202
0.945670014210887
0.8411464415534752
0.16108705722514033
0.801422766269972
0.20574716114834407
0.9068376975984734
0.9012231115043517
0.900915003266026
-0.004787081858400536
0.9402836315614708
0.35864684992333723
0.21934139107297498
1.0005924564453343
0.17083142089625525
0.5575823573682794
0.712118069752442
0.6083908470723027
0.6409698051509447
0.04339905913164744
0.9515666666932026
0.9504025136894432
0.05706899130760073
0.6962800402240088
-0.006261609833775013
1.0060679803927703
1.0038463496129018
0.03752575676343613
0.043664844659493454
0.8937098610696751
0.2518444036074325
0.9471826738952237
0.4519885783034462
0.8595036322356676
-0.0003987688540140786
0.6432240958340556
0.3550988565622408
0.3662491187954519
1.001220739820963
-0.0021799911290896674
0.5573330385809865
-0.007551861811667028
0.41330615116717884
0.06743024857237268
-0.0011387132893732727
0.23644683058973898
0.6258301705487274
0.7203050847165082
0.7818823459601619
0.9497658089695399
0.0482175962694239
0.24427926581029
0.18646515678341893
0.7696565892543321
1.0046406892209025
0.23304209610528473
0.06987093802863903
0.18722952636345613
0.054667144835718544
0.929232082144359
0.04725566432614341
0.2104848657849601
0.7839268808630884
0.7880518753557431
0.7985582002248914
0.4075392504636691
1.0058861588115922
0.37161377520534106
0.9167104160084939
-0.0013162886681469953
0.051431790838529806
0.04081715935335651
0.5980919100727631
0.07142885016947796
0.002100692490311738
0.059878806779589865
0.0815750045514219
0.41678593389155444
0.5606728653983962
0.03066547652056476
0.19775634814488174
-0.001821919171727879
1.0001529169386076
0.9188544610324644
0.43377222605630017
0.5681539266558898
0.6254099586151048
0.9385530969974806
0.051700441317247915
0.050552813906701605
0.9982344216481098
0.030828906353520324
0.5060708316735137
0.3291673346545537
0.11864468013831699
-0.0009556501074254259
0.7915413797273828
0.9494197926798787
0.14527190306470783
0.1266599429043924
0.8525833323010649
1.0017603839681044
0.04482283875524691
0.9425655719276377
0.9418784644534473
0.4455476184663381
0.44278530850894954
1.0008909050189723
0.21408780198330615
0.3346705072120213
0.37561335062362616
0.0002725775955292959
0.9670134327398913
0.9679720400315455
0.24453820669958312
0.5947422952610569
0.8295805356737438
0.8323908588801691
0.18926241670150667
0.8302530192308187
0.235887510813782
0.8797220710620515
0.878473473876905
0.619461594065933
0.8934090126890339
0.6179161421670932
0.052062898455128244
0.9505214088425092
0.3941000410334448
0.6229454968324807
0.3767628972441738
-0.007470572052484426
0.3126481494172395
0.05681848606583331
-0.0006003830457926947
0.5661651495483904
0.1164380102965107
0.2202896575269258
0.08609263564892006
0.8001728593816303
0.8739610298621118
0.9757489369285767
0.5845258491862195
0.003247550622868517
0.40617792125037366
0.07765861831719048
0.9992618681561162
1.0002881814106181
-0.0010489023005196983
0.057926027221478646
0.9449186055309978
0.00037982735920303527
-0.004496583865716425
0.2350026209151005
0.7672815156470691
0.4368433766530103
1.0029596294338163
0.22727013038224209
0.8178090845059227
0.19909262530601846
0.8078111363985526
0.19214744635705477
0.9787258251090616
0.0016777338723378528
0.41268513976361465
1.0008853052434326
0.9584712318709925
0.04415590902430567

SCALARS Omega double
LOOKUP_TABLE default
-7.676397352944039
-1.1989193702188226
8.549611826970585
15.920566873395153
36.51210038443458
-6.477586395804897
2.4231870142548875
-4.467042257934005
-0.42803577610872334
1.9248504715960988
0.05000903864472138
-0.6352690255234335
0.4825064786655475
1.141434907853205
0.2072722960394125
0.8256064324551884
0.5077671426890448
0.7913510590370587
1.555409389151948
-0.10833169287839105
1.424224533982226
1.258017247427433
-0.47036981930357774
0.4962125132397517
1.0738920439489552
1.0488256293407616
0.7471756640762428
0.23541810030267032
0.45197469351445985
1.4151296969010216
1.1057158060643226
0.1413009604166054
1.3333049112391444
0.8519773928498036
0.4187166149830746
1.1399903694419358
0.7588190168156589
0.3827786900916434
1.3402811040279927
0.6855859154610775
1.4109738327204986
0.7136440502676553
0.4289988210769537
0.36014681744307037
0.9632695676799619
0.7425566723404976
2.1914490325746794
0.47351029770988234
-0.502594981610944
2.217868756409992
0.901238072912786
1.9158252087421597
9.619790585989241
-7.726742976442956
0.5021231430513405
2.7012380553324986
1.5451329360514041
-0.08401834284999364
-0.9944613584962486
-2.4834692858958447
-3.1721447304985424
-1.663220908710795
-0.27974005548965003
-0.7010549311312757
-1.0952331559322472
-0.10757215578404089
-0.7342040417824749
-0.3766209643136906
-1.0792257188496532
-0.8260760142840443
-0.30469540465639544
-0.7183926652005107
-0.4541745263681287
0.12586271072805522
-1.7847132021656291
-0.641677764629016
0.40933663100267975
-1.5105414765963296
-0.5978704433223242
-0.2825088075008137
-1.1364747493139025
-0.8205164275346204
-0.4306329903235822
-1.1370428789738831
-0.9175968182664875
-1.4722428606062294
-0.14051353210021506
-0.55687671057241
-1.013350648108423
-1.1313826242788632
-0.7564294317771657
0.7228370243818466
-1.433387072253074
-1.2551622096015596
0.23076726828346153
-0.8634853788241917
-1.1226204745473474
-0.14284822997592825
-0.5456284538405957
-1.5213006010456414
-1.5277095344339826
-0.38034054522004346
-1.9048469859046406
-0.485744459522841
-2.070327969514379
-0.4993643274234334
-0.1413206470464497
-2.0693708786442375
-1.9112637186036538
-0.818989504351643
0.7510205683808727
-4.592790312339671
2.6457917980696855
0.3120080983149758
-0.025426466786677367
-0.8569694237070157
1.6496860666119955
-5.888910814421062
-2.339628086374087
-42.60906076020786
-0.515685127364834
0.49639495387163307
0.06661156766677084
-0.09192048298631247
-0.29310559886083565
-0.24295095669560718
0.18246848609254845
-0.37520405819857844
-1.7234431552640592
3.1091736555832736
2.61413207243214
-2.7012678147309788
-2.7685792430992744
-2.4164274811796065
-2.665246057507041
-2.0289545041479173
2.953155820655706
2.89754525405531
2.8139548548507527
2.954613391433378
2.312792016933881
2.899877685183672
-3.2647002448030316
3.8673529306764554
-2.5879261707954115
-3.9567308509062613
-3.931258878528149
5.217082748610459
4.306317315645383
4.022054567319668
-4.701340352237413
-4.273109670751137
-4.215647525430709
-4.028575738148619
4.169513264052316
3.951802690685212
4.186875703630792
1.9666362037600555
4.571298400775256
-3.9720083966571327
-1.70262325275799
-4.640305836497018
-4.9941668299692346
-1.4207444602041908
-0.17737641813285454
0.7288304452987238
-6.320401426980265
-5.4573224127859135
5.036917302062258
-5.161775145866549
5.246756678164351
5.049891833163942
-1.2648304572715436
-4.898326809561529
0.1840405493592303
0.12767520589820203
0.10593062182946063
-0.17281980297091679
-0.010904256186200159
-0.17482957249277928
0.06574455967339499
-0.11761620968160455
0.09091405105794248
0.1559014373127079
0.24440518479112347
-5.659587116828538
5.441976425857214
7.333854869627572
-5.861416389470817
5.926501513351884
5.924824657430984
6.154988216062502
-5.510939996004481
5.671968236986447
5.339561596900021
-5.639683892136186
-5.515782574304208
-6.427182807212106
6.579007026804719
5.746083200399982
5.840740151864972
0.2955612573229241
13.255504484540163
5.664754530814151
-5.630591819020999
2.217769340405529
2.262582175450266
-2.3834068755735527
-5.451701000683927
-2.3399214301157163
-5.973776608659743
2.54792509726332
-2.4208571526062355
-2.375635231723339
-1.8246833785859016
1.96095736421366
2.1411224330921517
-5.637652166032621
0.08678946541244678
6.114116090007105
1.7582978944856216
-2.19191353551748
-1.6566657578226163
2.2524438266165046
5.655930043080148
-1.8194079474292508
-1.2689532500733498
0.6743444812943172
2.5239602382044324
-6.108018500076198
-1.8687442627999955
-6.234849025660229
-6.238991730142794
-6.4144845593192095
-1.8486877087017313
-6.301605244824489
-4.5167997064202074
2.4795745769600397
-2.1325047851428556
-2.3681102781978636
2.5162187131203733
2.228062013421401
-2.212460108958844
-1.4512096050700312
1.4456217417195127
1.5627948523253945
1.6180491289492267
2.0385948199351445
2.9305704527315055
5.8302719703720625
-6.5771775297872885
-7.584320530881713
-6.63797648737473
-8.411677613658394
6.402656159130627
7.00678259643825
-1.5583373385953605
6.747084757595732
-0.913966685659409
-1.0083902070145243
6.726487458466493
-5.511993151221116
8.10341423236996
6.010119329228914
-6.299948279736383
5.641084531521952
-2.1029778516540847
5.733607590321699
7.1709374588786075
-2.083364967478128
-8.53098925212818
-10.84836605226077
-8.804884157560286
6.708354505907827
5.917514129986244
-1.0374357053362995
7.1079820202017645
-2.1708442401541808
-7.97019879033272
2.14634022854053
-1.9189811101272967
-1.8778087083107289
23.707645289031365
-6.2195607431844495
1.9882161012265782
-3.3345003027726463
3.510225673804839
3.2293470413008536
3.1926781123571217
7.56008651055426
1.6215806921465379
-8.327930625679073
8.570847379993296
6.9785055078305325
-1.4498942455648642
-1.5417082341423693
-3.2765770328549273
6.761398879193698
-6.768530391888856
4.042204369123406
-1.9229642965442997
-3.7614166487011755
-0.44510323974329435
-6.432498267684932
3.282467402902884
7.655065073408136
5.574620189395035
-4.13679058597621
-3.197475148405156
-9.985646237877193
-0.4107755502473398
-8.316810620716868
-1.4068733083486735
-3.061217893515207
-8.686853886885755
-7.896674220133406
-0.8181241093065874
-0.5651033265913992
-0.7874345636654319
0.7663730074748002
0.90248710713475
-7.399544442273699
1.3576777306666457
-9.302054085331928
1.9180735930216266
-4.038872561976619
-4.131561085471494
9.778619925879138
3.0844471743605286
-3.0874914826566844
3.107624739292255
-3.303520725023129
-3.0737201976351223
3.2564836340190193
6.71172371137563
-6.5135549395951315
-4.11838095013416
4.049279774341417
-4.037968041457518
-1.2794085638689179
0.9958672164002939
5.691606796344525
-9.315880856870319
-0.7016802381149198
-0.7223347387505983
1.0415921717016012
0.8738350194463407
0.7494554665571895
-6.7044568110800755
-8.022177666669362
-3.861341326080538
4.055645681516875
3.9201613029479065
0.9642926278586621
-0.8362074909530699
-0.6486045512690904
-9.068498154558785
0.8411352993437237
4.386337608781911
-3.9679693535349085
9.522554571575704
-3.0310097571256898
-0.44329409089131155
0.2014190440474802
-0.8236153327482115
3.8614992668900405
0.23636734403209567
8.56972373517877
-0.34262082766066615
6.776664398402543
6.290616139882572
4.436471265113127
5.496373533206111
2.9235427598735635
-7.864558416808894
-1.2876205979472577
1.9800108931252405
0.7131680999446462
1.6831047214996429
-1.865358589371112
-4.519472207318315
-10.001912096187654
-0.558740966585291
0.7360787363895087
3.5350404934740656
0.6907314628343555
-0.5467962764055483
-0.4735599058190342
5.482242341757675
4.906250088271086
-3.9617081325789343