# vtk DataFile Version 1.0
2D Simulation C++
ASCII
DATASET UNSTRUCTURED_GRID
FIELD FieldData 1
NODES 1 2 int
715 1308

POINTS 715 double
0.0 0.0 0.0
5.0 0.0 0.0
5.0 1.0 0.0
0.0 1.0 0.0
0.10000000149011612 1.0 0.0
0.20000000298023224 1.0 0.0
0.30000001192092896 1.0 0.0
0.4000000059604645 1.0 0.0
0.5 1.0 0.0
0.6000000238418579 1.0 0.0
0.699999988079071 1.0 0.0
0.800000011920929 1.0 0.0
0.8999999761581421 1.0 0.0
1.0 1.0 0.0
1.100000023841858 1.0 0.0
1.2000000476837158 1.0 0.0
1.2999999523162842 1.0 0.0
1.399999976158142 1.0 0.0
1.5 1.0 0.0
1.600000023841858 1.0 0.0
1.7000000476837158 1.0 0.0
1.7999999523162842 1.0 0.0
1.899999976158142 1.0 0.0
2.0 1.0 0.0
2.0999999046325684 1.0 0.0
2.200000047683716 1.0 0.0
2.299999952316284 1.0 0.0
2.4000000953674316 1.0 0.0
2.5 1.0 0.0
2.5999999046325684 1.0 0.0
2.700000047683716 1.0 0.0
2.799999952316284 1.0 0.0
2.9000000953674316 1.0 0.0
3.0 1.0 0.0
3.0999999046325684 1.0 0.0
3.200000047683716 1.0 0.0
3.299999952316284 1.0 0.0
3.4000000953674316 1.0 0.0
3.5 1.0 0.0
3.5999999046325684 1.0 0.0
3.700000047683716 1.0 0.0
3.799999952316284 1.0 0.0
3.9000000953674316 1.0 0.0
4.0 1.0 0.0
4.099999904632568 1.0 0.0
4.199999809265137 1.0 0.0
4.300000190734863 1.0 0.0
4.400000095367432 1.0 0.0
4.5 1.0 0.0
4.599999904632568 1.0 0.0
4.699999809265137 1.0 0.0
4.800000190734863 1.0 0.0
4.900000095367432 1.0 0.0
5.0 0.8999999761581421 0.0
5.0 0.800000011920929 0.0
5.0 0.699999988079071 0.0
5.0 0.6000000238418579 0.0
5.0 0.5 0.0
5.0 0.4000000059604645 0.0
5.0 0.30000001192092896 0.0
5.0 0.20000000298023224 0.0
5.0 0.10000000149011612 0.0
4.900000095367432 0.0 0.0
4.800000190734863 0.0 0.0
4.699999809265137 0.0 0.0
4.599999904632568 0.0 0.0
4.5 0.0 0.0
4.400000095367432 0.0 0.0
4.300000190734863 0.0 0.0
4.199999809265137 0.0 0.0
4.099999904632568 0.0 0.0
4.0 0.0 0.0
3.9000000953674316 0.0 0.0
3.799999952316284 0.0 0.0
3.700000047683716 0.0 0.0
3.5999999046325684 0.0 0.0
3.5 0.0 0.0
3.4000000953674316 0.0 0.0
3.299999952316284 0.0 0.0
3.200000047683716 0.0 0.0
3.0999999046325684 0.0 0.0
3.0 0.0 0.0
2.9000000953674316 0.0 0.0
2.799999952316284 0.0 0.0
2.700000047683716 0.0 0.0
2.5999999046325684 0.0 0.0
2.5 0.0 0.0
2.4000000953674316 0.0 0.0
2.299999952316284 0.0 0.0
2.200000047683716 0.0 0.0
2.0999999046325684 0.0 0.0
2.0 0.0 0.0
1.899999976158142 0.0 0.0
1.7999999523162842 0.0 0.0
1.7000000476837158 0.0 0.0
1.600000023841858 0.0 0.0
1.5 0.0 0.0
1.399999976158142 0.0 0.0
1.2999999523162842 0.0 0.0
1.2000000476837158 0.0 0.0
1.100000023841858 0.0 0.0
1.0 0.0 0.0
0.8999999761581421 0.0 0.0
0.800000011920929 0.0 0.0
0.699999988079071 0.0 0.0
0.6000000238418579 0.0 0.0
0.5 0.0 0.0
0.4000000059604645 0.0 0.0
0.30000001192092896 0.0 0.0
0.20000000298023224 0.0 0.0
0.10000000149011612 0.0 0.0
0.0 0.10000000149011612 0.0
0.0 0.20000000298023224 0.0
0.0 0.30000001192092896 0.0
0.0 0.4000000059604645 0.0
0.0 0.5 0.0
0.0 0.6000000238418579 0.0
0.0 0.699999988079071 0.0
0.0 0.800000011920929 0.0
0.0 0.8999999761581421 0.0
0.7496038675308228 0.5164291858673096 0.0
1.3451675176620483 0.5190238952636719 0.0
1.9462687969207764 0.4963642954826355 0.0
4.456614971160889 0.5060901641845703 0.0
3.864220380783081 0.4866538345813751 0.0
3.249823808670044 0.482722669839859 0.0
2.6500000953674316 0.5 0.0
0.3810288906097412 0.399004191160202 0.0
2.308779239654541 0.3797946870326996 0.0
1.0499999523162842 0.6625000238418579 0.0
1.644740104675293 0.6598879098892212 0.0
4.150000095367432 0.3375000059604645 0.0
3.555316209793091 0.3343118131160736 0.0
2.9446933269500732 0.3401789665222168 0.0
1.6342840194702148 0.3290160894393921 0.0
1.0591840744018555 0.33908534049987793 0.0
2.9654481410980225 0.6753292679786682 0.0
3.5534629821777344 0.6835107207298279 0.0
4.153462886810303 0.6835107207298279 0.0
2.2139804363250732 0.6805098056793213 0.0
0.4914395809173584 0.6739721894264221 0.0
4.691666603088379 0.6916666626930237 0.0
4.691666603088379 0.3083333373069763 0.0
2.4872219562530518 0.7236665487289429 0.0
0.6240421533584595 0.2677222192287445 0.0
2.0697431564331055 0.2657754421234131 0.0
2.5389034748077393 0.26082900166511536 0.0
0.8147311806678772 0.7450684309005737 0.0
1.2897310256958008 0.743314266204834 0.0
1.8853894472122192 0.7450258731842041 0.0
4.382374286651611 0.23655959963798523 0.0
3.910269021987915 0.25668570399284363 0.0
3.1838724613189697 0.25397706031799316 0.0
1.398239254951477 0.2614254057407379 0.0
3.201760768890381 0.7385746240615845 0.0
3.8017609119415283 0.7385746240615845 0.0
4.39177942276001 0.7466779351234436 0.0
0.25301694869995117 0.7458874583244324 0.0
2.7258167266845703 0.7600342631340027 0.0
0.84163498878479 0.2263137847185135 0.0
0.22429518401622772 0.22429518401622772 0.0
2.7605957984924316 0.22504857182502747 0.0
1.8330284357070923 0.2150011658668518 0.0
0.2192869633436203 0.5323538780212402 0.0
4.7908525466918945 0.5038931369781494 0.0
2.466000556945801 0.5376454591751099 0.0
3.7061264514923096 0.17723728716373444 0.0
3.3929696083068848 0.20266839861869812 0.0
1.4905184507369995 0.7937026619911194 0.0
1.2104878425598145 0.20361483097076416 0.0
3.9895122051239014 0.7963851690292358 0.0
3.389512300491333 0.7963851690292358 0.0
0.5652223825454712 0.5070380568504333 0.0
0.44509074091911316 0.19716571271419525 0.0
2.1318352222442627 0.5042122602462769 0.0
1.548349142074585 0.4954715371131897 0.0
3.050636053085327 0.5004673004150391 0.0
0.9511125087738037 0.498258113861084 0.0
3.651650905609131 0.5045284628868103 0.0
4.248488903045654 0.4980509281158447 0.0
1.1537858247756958 0.49593159556388855 0.0
4.050199031829834 0.49993085861206055 0.0
3.464722156524658 0.509624183177948 0.0
1.749653697013855 0.5001751780509949 0.0
2.851828098297119 0.5057260394096375 0.0
2.359710216522217 0.1888567954301834 0.0
2.0499017238616943 0.8199846148490906 0.0
0.6430503129959106 0.8181284070014954 0.0
4.560274600982666 0.1724673956632614 0.0
4.55863094329834 0.8299665451049805 0.0
2.321284055709839 0.8242537379264832 0.0
4.815218925476074 0.8345447778701782 0.0
4.837246894836426 0.16590170562267303 0.0
0.9682294130325317 0.8331464529037476 0.0
1.730908751487732 0.827606201171875 0.0
4.220076560974121 0.17516615986824036 0.0
3.02066969871521 0.18326662480831146 0.0
1.5634372234344482 0.17044226825237274 0.0
3.035303831100464 0.8294908404350281 0.0
3.627507209777832 0.8360387086868286 0.0
4.2312469482421875 0.8315803408622742 0.0
4.618130683898926 0.5361976027488708 0.0
0.40311703085899353 0.8369210362434387 0.0
1.1473191976547241 0.8458209037780762 0.0
4.052680969238281 0.15417908132076263 0.0
2.020958423614502 0.6394158005714417 0.0
0.662188708782196 0.6447370648384094 0.0
4.5115838050842285 0.3538685142993927 0.0
1.0221220254898071 0.15309639275074005 0.0
0.3837882876396179 0.5515117049217224 0.0
3.548090934753418 0.15800617635250092 0.0
1.4348299503326416 0.6465393304824829 0.0
3.765170097351074 0.3534606993198395 0.0
3.3348300457000732 0.3534606993198395 0.0
1.2546738386154175 0.36384353041648865 0.0
3.945326089859009 0.636156439781189 0.0
3.3412928581237793 0.637225866317749 0.0
2.1904795169830322 0.17066854238510132 0.0
0.16392111778259277 0.38331863284111023 0.0
2.87723445892334 0.8265392184257507 0.0
4.8459792137146 0.6499902606010437 0.0
4.845625400543213 0.34837812185287476 0.0
2.771622896194458 0.38129922747612 0.0
4.5222978591918945 0.6578375697135925 0.0
2.604464530944824 0.8240283727645874 0.0
1.8544400930404663 0.3751189708709717 0.0
0.8566747903823853 0.38255012035369873 0.0
2.2932615280151367 0.5369129776954651 0.0
2.620572805404663 0.6496497392654419 0.0
0.7172287106513977 0.1490369737148285 0.0
0.1410960853099823 0.8303417563438416 0.0
1.7142322063446045 0.142862930893898 0.0
2.6314175128936768 0.14492936432361603 0.0
1.9832650423049927 0.1408119648694992 0.0
2.445650577545166 0.370038241147995 0.0
2.885042667388916 0.1455758661031723 0.0
0.13937503099441528 0.6546638011932373 0.0
0.9110832810401917 0.6349053978919983 0.0
3.088575839996338 0.3613528311252594 0.0
4.296638011932373 0.3563385307788849 0.0
1.1930090188980103 0.6355591416358948 0.0
1.788455843925476 0.6387236714363098 0.0
4.006990909576416 0.3644408583641052 0.0
1.4459187984466553 0.39242905378341675 0.0
4.354081153869629 0.6075709462165833 0.0
3.7540812492370605 0.6075709462165833 0.0
3.1591691970825195 0.6018876433372498 0.0
2.7615907192230225 0.6205627918243408 0.0
2.36276912689209 0.6735464930534363 0.0
1.3681535720825195 0.8630191683769226 0.0
3.8318464756011963 0.1369808316230774 0.0
3.275517463684082 0.10712132602930069 0.0
0.5630941987037659 0.12814241647720337 0.0
1.3237862586975098 0.10638008266687393 0.0
3.2733232975006104 0.8705052733421326 0.0
3.8733232021331787 0.8705052733421326 0.0
2.0396511554718018 0.38928428292274475 0.0
2.2168734073638916 0.8508136868476868 0.0
0.5163488388061523 0.3409615159034729 0.0
0.6547463536262512 0.3955095112323761 0.0
1.9480526447296143 0.8710126876831055 0.0
4.689375877380371 0.13700176775455475 0.0
4.698264122009277 0.8675068616867065 0.0
0.7578787803649902 0.8698469996452332 0.0
2.479548454284668 0.13692785799503326 0.0
2.4562506675720215 0.8735422492027283 0.0
2.171211004257202 0.3573116958141327 0.0
3.5117530822753906 0.853193998336792 0.0
4.107914924621582 0.8658969402313232 0.0
2.640726327896118 0.354434996843338 0.0
4.346996307373047 0.1279495507478714 0.0
0.3128283619880676 0.11246757209300995 0.0
0.136248379945755 0.12152919173240662 0.0
4.453908443450928 0.8629162907600403 0.0
1.6064813137054443 0.8679171800613403 0.0
0.3380795121192932 0.6626779437065125 0.0
0.5102446675300598 0.875635027885437 0.0
0.7425088882446289 0.2989330589771271 0.0
3.1349449157714844 0.10448489338159561 0.0
1.3287748098373413 0.6181886196136475 0.0
3.871795415878296 0.38215625286102295 0.0
3.229135036468506 0.3810797333717346 0.0
0.28971707820892334 0.8759857416152954 0.0
0.9214505553245544 0.11992674320936203 0.0
1.9219478368759155 0.6237660050392151 0.0
1.530794620513916 0.29603153467178345 0.0
3.072223663330078 0.7044162750244141 0.0
3.6722235679626465 0.7044162750244141 0.0
[...]
POINT_DATA 715
SCALARS Psi double
LOOKUP_TABLE default
0.0
0.0
1.0
1.0
1.0
1.0
1.0
1.0
1.0
1.0
1.0
1.0
1.0
1.0
1.0
1.0
1.0
1.0
1.0
1.0
1.0
1.0
1.0
1.0
1.0
1.0
1.0
1.0
1.0
1.0
1.0
1.0
1.0
1.0
1.0
1.0
1.0
1.0
1.0
1.0
1.0
1.0
1.0
1.0
1.0
1.0
1.0
1.0
1.0
1.0
1.0
1.0
1.0
0.9190256652219115
0.8647980275428861
0.7633498670188565
0.6276817777640487
0.47166029285621375
0.31437427629486175
0.17625162794244884
0.07282012844392016
0.019248533462330415
0.0
0.0
0.0
0.0
0.0
0.0
0.0
0.0
0.0
0.0
0.0
0.0
0.0
0.0
0.0
0.0
0.0
0.0
0.0
0.0
0.0
0.0
0.0
0.0
0.0
0.0
0.0
0.0
0.0
0.0
0.0
0.0
0.0
0.0
0.0
0.0
0.0
0.0
0.0
0.0
0.0
0.0
-0.0
0.0
0.0
0.0
0.0
0.0
0.0
0.027348673737212593
0.1076940430784847
0.20922909071173215
0.3108719726433274
0.4124622262551997
0.5108167229865982
0.6026355059214376
0.6784482568764028
0.6416394052554885
0.5299705819193409
0.5432797033830127
0.5008236958522398
0.49394012542264837
0.4685120867021885
0.4709786904814895
0.5113875528626443
0.3203944459027793
0.3098252156640093
0.7745823442293146
0.7648331694740387
0.22802495230116115
0.2233107068930582
0.24698682841818181
0.2280884603399034
0.2548479261022552
0.7924975886028888
0.7893747090346735
0.786723004375207
0.797091848112317
0.7598480031645057
0.7846505238677137
0.17859047730905991
0.854111936602676
0.15681065707414316
0.14551211592534075
0.14104699409430183
0.8815549639487463
0.8772621476276078
0.8751110136682642
0.09219084075970044
0.12253246538608077
0.12342939412271363
0.13572975403646395
0.8685965321448239
0.8623910641198969
0.8678372605389112
0.7934644684011836
0.9001990355030548
0.11055997531986941
0.11127075822437496
0.09691049482513177
0.08289643502148973
0.46456375363726643
0.4804210588279623
0.5738985356110236
0.040027795491666275
0.0626961271266309
0.9294616444476387
0.06980593158452268
0.925430398380639
0.9261176049909442
0.49540584586040615
0.07117227388106277
0.5154557837089355
0.5009481808702807
0.5073722726627581
0.5097562658648856
0.5001047960265628
0.48441863163884025
0.5068028080582698
0.4897603133993611
0.5110639640821197
0.5072476340593035
0.5203965599698077
0.05773851876184921
0.953273500442677
0.959033438127193
0.03728192814958258
0.9531609267026266
0.959244886630591
0.9417908100564542
0.02895698783228304
0.9639051208600095
0.9564304943529556
0.04049770732316478
0.05243486907636295
0.040933529968394784
0.9652818353910573
0.9611578300797134
0.9579320578739201
0.5402021219042926
0.9786716133309976
0.9709291809308105
0.029820698745833603
0.7336433919982638
0.7343858761583377
0.24561070871790444
0.03678552449003436
0.5292704120146182
0.028989768558505442
0.7479769526860358
0.25122818150038523
0.2562773811719781
0.2871410111344615
0.7154550081046541
0.7229530343176052
0.044512398021659176
0.2947949574627139
0.9644606267625472
0.7134068695327357
0.22996441913987906
0.31370677931350766
0.7418980388500336
0.9598633954305538
0.2999520622748956
0.3222364456248375
0.571176666891059
0.7548833568731143
0.037253954521530866
0.8225932002978701
0.025638888273538843
0.02742619958064438
0.025143177009209507
0.2957665790386933
0.026373772992365613
0.583795776698489
0.7315665083166357
0.27631023014554823
0.25322471465499913
0.7334852415177866
0.7316825428284252
0.26958479746634817
0.32982779322644246
0.6656539123366337
0.6710258758412503
0.6731161365528813
0.7098833345248513
0.786271397393599
0.9791985103857446
0.01761834455328141
0.0017909099455112258
0.021262830123289386
0.0010667359845928147
0.9813847245512762
0.982278918819754
0.3242186274920436
0.975977581645307
0.24961151158036385
0.3344336357349913
0.9852841487885454
0.019862506228778096
0.9786566724337582
0.9849510016097814
0.023309909034690733
0.9841453282199811
0.2743608053395544
0.9696257494941853
0.980157657935863
0.2723867415759896
0.00573487520031031
0.006012580485230498
0.02258995320061498
0.9772589425968059
0.9811684667870193
0.6942158169238767
0.9922330431795323
0.19993492673744542
0.0030008353179705074
0.705139812695084
0.2970317878886341
0.3033287840321672
1.0187588430008347
0.021828739849743373
0.7083557995057769
0.1817938071023293
0.8294041617738724
0.8170627799916007
0.814071871044987
1.0058509678909535
0.6890898490872052
0.004083498511201962
0.9947524205568432
0.994407731244259
0.15505857637990747
0.32576919300800417
0.18356439218090023
0.9957995086266852
0.0036202645263243368
0.8687469584927178
0.2928463157190777
0.12747639653039708
0.34093970312356764
0.011585933690172641
0.16199586781390213
0.9905699063123635
0.9901100377537579
0.12677622595946264
0.19096093574951695
-0.0015559996631574746
0.4432056876760444
-0.0035620371363391024
0.404763378346391
0.19418781822881678
-0.0037856185018098143
0.0006950468374400151
0.40985375232963195
0.4292925494994146
0.41381436414695294
0.592379072356307
0.5901970789764435
0.0030954380244705886
0.5523894620121618
0.0015977012729989943
0.6954608222437804
0.13017240471838093
0.6021211031990659
1.0012122752173183
0.803974183986733
0.17328612070857874
0.8022836363201677
0.18246826733300633
0.20065062412466952
0.8159025852844147
0.9983420306457207
0.00155099345480699
0.13159929714015664
0.8659008829578468
0.1336718398627927
0.33042748494252455
0.6180135309486586
0.8268052220966395
0.10741200928704311
0.40848878674055644
0.416638451085252
0.6117901591500412
0.596984550984876
0.5911678227067477
0.02033673210868864
0.6538742281290424
0.13764705661405688
0.8651960380548247
0.8609273436443939
0.5955586300531989
0.40767515183151565
0.42403748764511445
0.0036656010552851806
0.5887589243825494
0.8685166045713972
0.13420114455254087
1.0064530703614443
0.19663903245250414
0.5742429177018084
0.6578869594513215
0.4066192772750683
0.8617182090047137
0.5814141684107381
0.9993394062847019
0.45271560514750336
0.988288553867892
0.9874811529153029
0.8954603813661615
0.8672965676920694
0.9583229537942959
0.0061796631316497885
0.4239907921714814
0.7086319668117473
0.5764801349658255
0.6817927318825302
0.36861275765883245
0.10506563711180629
-0.0013913539127634763
0.43994338443057285
0.21143812957902736
0.8394611770769245
0.564274238799491
0.4403370433552047
0.44650301379877555
0.8513014408951839
0.8765282708831449
0.13826604691179872
0.12313212364574498
0.8676689254661186
0.4113263374103158
0.9991210039838964
0.14236254268287324
0.9043257362367269
0.9053941261509652
0.3596626718060525
0.917373037869535
1.0040569904715464
0.11469449661388369
0.14386368601728894
0.6753929846811854
0.3243964181663476
0.6764675466109474
0.6891581516231886
0.08487192696153921
0.6686540696979253
0.3343034509961957
0.33429994070486213
0.0065078540363454705
0.47556135204115535
0.2627031012352213
0.7366509171825855
0.7645280157278409
0.34005893651350866
0.8771893481453252
0.6653938243097443
0.660824935773185
0.6346635280575705
0.007669364114438812
0.007465807407308714
0.1321393443838542
0.822466262966527
-0.003096818167001283
0.9159932724379174
0.9156391023650367
0.8469562142265471
-0.0034443275394186756
-0.002856133561980281
0.19013137105103625
0.3422690195164379
0.00010296293532116697
1.0004470742002611
0.3369143146894233
0.88628848136023
1.000222810341059
0.8833970222660867
0.12014471681021621
1.0058595964808634
-0.0016104464954190293
0.10400274233856806
0.9954462625780941
-0.000518289178836446
0.3175698246475408
0.0005984155381331026
0.6902254582424638
0.0036898866525170403
1.0020614717387397
1.0044982827121909
0.11183706311120413
0.49314337895137195
0.1519882012259938
0.9978404411146772
0.8862265950464706
0.9988939803353554
0.32990099991426824
0.9993633791068407
1.0028032872070018
0.13330798108692055
0.08806749693540858
6.221195005262857e-05
0.2814182505356475
0.6491509629114681
0.5856235940416235
0.4122363648979379
0.5615425124679115
1.0040286090707669
0.25553872898818997
0.5707786151503476
0.9999424887710213
0.00030295599460799876
-0.0013735151808637776
0.19358247533436365
0.4071462873285508
0.5797009304748325
-0.001872477025418212
0.9203146417853612
1.0052977763787272
0.8847882237736385
0.0909829241067568
0.9141052947220649
0.9072983985985511
0.6351389954766379
0.07845732524785298
0.8950632300048813
-0.0018895010578587079
0.2816630086173074
0.0025999569618091007
0.9330137572555254
0.06722447474790769
-0.001514769504093335
0.5874342755116666
0.5399582452242991
1.004290184906432
1.015449284567443
1.0015426269247285
0.001285115246315377
0.43377473305446534
0.6800041514842897
0.6876951936167565
0.6806563496342928
0.3200939088334772
0.31606476859732546
0.33174299521090805
0.943917711037849
1.035380964148897
0.9973923544684093
0.9946808937290412
0.9634436137347939
0.6847475545865426
0.7572549602409254
-0.0020712098735129335
0.06493580850508342
0.7910909757225806
0.7051733676348302
0.23289147361684054
0.8726684916496967
0.08575927651030912
0.07606972230699856
0.7183471411649832
0.618812558724754
0.43437805400774104
0.9981471734796582
1.0012881736865158
0.7724678659503407
0.10032140918310067
0.9307877995169843
0.2142313244995714
0.952390390714586
0.05409735117858753
1.0003865697737138
0.002154578495424117
0.3679580861314991
0.6122343178042756
0.36363501217135447
0.8332712356105548
0.041996778179822086
0.5916414072800914
0.37552437041394937
0.8379028394366825
-0.0012092868849581412
-0.0036121071719479587
0.1894479259935274
0.1757953623821823
0.05639606436452282
0.1051039505493799
0.9456856417685731
0.8416476716282557
0.16019174148945137
0.8015612121951117
0.20468864161205524
0.9068438046200448
0.902082346477211
0.901763567283689
-0.004728823032182946
0.9407578326810384
0.3586903404297059
0.21812238433704664
1.0005525049663206
0.16986692976175852
0.5582441320444259
0.7128902902606304
0.6094545011098569
0.6410330034418205
0.04327020881092498
0.9519751077773239
0.9508614958676516
0.05637431648045382
0.6962894815417354
-0.006200994892749918
1.0059795091472798
1.0037810331286035
0.03739764039825372
0.042800039787114046
0.8942086513724588
0.25188323421075043
0.9475831527001862
0.4513313537917709
0.85977411871012
-0.00039846165929915305
0.6440088776893084
0.354739172265204
0.36623001048857473
1.001159994585389
-0.002136160833451498
0.5573383928466205
-0.007554031620962335
0.41326613369742693
0.06738814493119283
-0.0011399288902539265
0.23593043489122079
0.6263676048607315
0.7203101026437246
0.7830280152802461
0.95001926462273
0.047876789895850154
0.24295198646709668
0.18536556549228086
0.769732849545054
1.004576332783602
0.23308273547569375
0.06919173633622226
0.18606154722585058
0.054136836103111347
0.9299091608954334
0.04685012284305918
0.20995464266119376
0.7850811707398323
0.7893057409822841
0.7996257237697667
0.40757148250327846
1.005885526449128
0.3708208005653186
0.9172527697157835
-0.001280979456410953
0.05119680644618861
0.04040471427937969
0.5981232605156329
0.07080702652499021
0.002099447930693345
0.05987996533593282
0.08157760342253184
0.41555100758981905
0.5610541176873843
0.03039765276725631
0.1962935952158365
-0.001822211195344246
1.000128015779419
0.9188832163600889
0.4338241469399656
0.5689184695278167
0.6264113859005351
0.9390186654123804
0.05140810422355748
0.0503993808315527
0.998242733061998
0.03058192256787668
0.5060786466055656
0.32768525834354023
0.11867338534218795
-0.0009142775460588137
0.7917889779559298
0.9494390780878107
0.14488573834354943
0.12609410203252588
0.8536305211763017
1.0017464253276447
0.04475232675805609
0.9430700665948215
0.9424100890885421
0.44504990510295056
0.44284112999818637
1.0008568587597353
0.21411180144637612
0.33467522913934034
0.374986749908913
0.0002715456411902124
0.9673298237770441
0.968272014555835
0.24455009810379935
0.5955906671465493
0.8307325486015743
0.8335245493343769
0.18902264203780916
0.8307656798074966
0.2343868880614613
0.8806750237189025
0.8794267932914962
0.6195619958623322
0.8940282852908137
0.6188033296932174
0.051626370318139325
0.9505664373429392
0.39389731188923804
0.6232841189918219
0.3762886219205715
-0.00736833975840949
0.3126769188017843
0.056827127311174626
-0.0005552294395308156
0.5666163561904407
0.11586842815358397
0.22024095410935854
0.08609401008174021
0.8002278339351038
0.8742838789450197
0.9759434234621179
0.585180039791533
0.003255340559229225
0.40535062739610817
0.07766813620144744
0.9992461200365376
1.0002569142437734
-0.0010195103314556123
0.05792872247410274
0.9453663452545122
0.00038301679965499225
-0.004374532123802725
0.23410374399865527
0.7679671552671558
0.43685775116974185
1.0029133520365878
0.2256542280406033
0.8187389805205092
0.198635001155221
0.8086664709298561
0.19132993354776295
0.9787220097878485
0.0016594521952640036
0.4115460493362077
1.0008890360536509
0.9585343281750585
0.043865917156980544

SCALARS Omega double
LOOKUP_TABLE default
-7.676455042517443
-1.19350917417128
8.557220756205487
15.920358928003042
36.51135815634865
-6.4776151897799
2.4231862687896855
-4.466205847847374
-0.42833061750974066
1.9233340425653398
0.04801966713051197
-0.6373726431941542
0.48525011059863327
1.144158295528726
0.2229773454928578
0.8257079420969629
0.5243779886913777
0.7914531677433828
1.5478186436368473
-0.1030477641365391
1.4110275428882455
1.2477726161724065
-0.45279719063661106
0.4921988679683273
1.0717313190790878
1.0465274038090635
0.75286584200888
0.2403296656313554
0.45613141936904905
1.4189875619373733
1.1068537021049134
0.15004330652111234
1.331152972647093
0.8532319384282638
0.41682350443536365
1.1301539217669008
0.7552894332322289
0.38052293534202825
1.32976189491552
0.6822856673269133
1.400238271589055
0.7077923980672257
0.430749147384219
0.3571472910808394
0.9558823821891085
0.7357797967336008
2.1688407030791517
0.4697829936406827
-0.49123279222970023
2.1982721093499333
0.8906846827952613
1.8972029818653342
9.606489625954838
-7.759853413451449
0.5234098527859115
2.7505071390716678
1.5726484302878354
-0.09155790404792274
-1.0455656017296842
-2.5336471736095834
-3.212190665720096
-1.6277100613494062
-0.27158357332458705
-0.6852458341427581
-1.082577047081114
-0.11653670767608244
-0.723927714372843
-0.3768412599900781
-1.0732289918354432
-0.820285982330527
-0.30579311133487225
-0.7160652600368108
-0.4551306508729278
0.114856132520625
-1.776565561576071
-0.6437127642789394
0.399229237362702
-1.5051924866957853
-0.5992800930349212
-0.2879091183478061
-1.129911178427724
-0.817131187641422
-0.42916947424475127
-1.1272214602637236
-0.9076601509119725
-1.4541595490016779
-0.14841807021645637
-0.5556270445317736
-0.9976542098468217
-1.1153927010614557
-0.7504594714955712
0.7114904379401458
-1.4194006094024436
-1.2434254686507462
0.22424240853716707
-0.8573448944846064
-1.1185133848820807
-0.15063323987622607
-0.5504082921413509
-1.5234965590089153
-1.5295448055617773
-0.3892309093700747
-1.9059869757659809
-0.48631238462254506
-2.0718823545009357
-0.49919664611199
-0.14071535057663684
-2.069505216803433
-1.911111624645088
-0.8190176176367858
0.7510848505038843
-4.592738237797258
2.6458018747212284
0.31202524363499917
-0.0254358302156986
-0.8569651656428335
1.6497202719610207
-5.889123586476075
-2.340069100339385
-42.60859985153038
-0.5143790086849906
0.5063696399874644
0.07837979877475434
-0.0914861375971487
-0.3040573626162089
-0.2413932611903619
0.1736696717909827
-0.375409137693866
-1.8102086158361714
3.1218277242779173
2.728547416806691
-2.7908027671037194
-2.8352573213167975
-2.49323023857037
-2.7441983355757333
-2.042273323323651
3.0257327707634767
2.984653963111841
2.917394090044076
3.010758831638328
2.314770348895218
2.9836145874777142
-3.354931667624162
3.9022043294225583
-2.586576426321561
-4.027513763946733
-3.9942236179077084
5.215257014936041
4.342414667649402
4.07278860141497
-4.738840509856151
-4.332753400381713
-4.252429141154717
-4.067870651638109
4.21806642806092
4.011657416526264
4.245717455688749
1.9678485615851276
4.59451848179299
-3.9695215447490515
-1.7027440171526225
-4.673327143216648
-5.025630715846921
-1.4211755415976255
-0.19095603182834553
0.7408941830812165
-6.300185829326883
-5.455244779449442
5.055464594349731
-5.158685709329546
5.258382665049564
5.056672662372784
-1.2639892300451294
-4.898761436285821
0.19207753943072084
0.1313559533037959
0.11548037043287811
-0.17335635851645276
-0.0013018856147310332
-0.1805365573246846
0.06279746291085943
-0.12082236232869095
0.11039589292579516
0.1727550842517232
0.2514165307624768
-5.647570086538257
5.4209728026494375
7.334255862540382
-5.8247573111528474
5.906064688515895
5.904099050483938
6.154549174855022
-5.455806814255904
5.6537604410525075
5.310343993009385
-5.615641942388401
-5.507066485058318
-6.414420075618871
6.545145131365477
5.709071933905782
5.816822951071618
0.3215982041387443
13.25416370330411
5.629427341669841
-5.5933331509768704
2.298237985648407
2.2641464100802113
-2.481541080722539
-5.441816046992275
-2.3401684561054927
-5.945527382129682
2.63370405418805
-2.4997018460357228
-2.435216028308827
-1.8595839488711041
2.0572149720792163
2.2265008702671816
-5.61704412280802
0.08648641222342295
6.083130703629745
1.8409025166407267
-2.2996343493355527
-1.7335424501434833
2.3537393925480257
5.638015754368545
-1.8967929580875569
-1.269659422280062
0.6945629222593303
2.5845130276708987
-6.107783668362501
-1.8673162927531501
-6.201285104647431
-6.19638052224814
-6.361977253135718
-1.9432716831428771
-6.258343657072071
-4.517460671489246
2.4829558606911175
-2.1916321204470233
-2.458009854947959
2.5465981038787024
2.327616621326032
-2.3028246588115766
-1.5024335873080723
1.5299084468282953
1.6398942556934448
1.6916590274961807
2.1007273948009497
2.9763430780446547
5.769139838319679
-6.524244680474355
-7.5412394283452215
-6.63947581761141
-8.369657204838258
6.34498615732744
6.939252828892569
-1.6365143952175483
6.7165446929512855
-0.9133365397495691
-1.007056284374373
6.667661925682849
-5.444507993265942
8.049911901102067
6.00971573270116
-6.234295179715362
5.618051915545408
-2.199005979194119
5.689072975773098
7.10899925967228
-2.1800535198190745
-8.44626127971683
-10.849184029239462
-8.805125942745462
6.650718904128865
5.846220191738597
-1.0365263774890259
7.104935641605957
-2.169205710357615
-7.9153813736462535
2.1976673609184
-1.9971893781125563
-1.9264512018605995
23.70473602798214
-6.213990743153782
2.0704866865394798
-3.3989024357158097
3.5753970820489167
3.309581454884039
3.286416425314579
7.508540152798342
1.6230104065121915
-8.277155004963198
8.47962604094027
6.911646278834657
-1.450010540960677
-1.6291044491865136
-3.3656067608194573
6.707066704237871
-6.697893551419974
4.086817585232229
-2.0091198866339166
-3.7621489833878794
-0.4455123333229543
-6.360197839814675
3.2824557035241146
7.573551063244206
5.575716124740928
-4.2015783299957805
-3.2803045478223565
-9.962075137758786
-0.4542116856159963
-8.219309721967878
-1.4070228990270344
-3.1420986610190496
-8.628107437748024
-7.851262464349965
-0.8621066407621374
-0.5935194434872505
-0.8094080834765136
0.7706636946977284
0.9576943333667367
-7.3075261974875385
1.3908867084886447
-9.207769790421272
1.9620743761805919
-4.098784938299519
-4.132041179203755
9.667530230214089
3.1782273809348567
-3.1062079748345153
3.1869819585013146
-3.362248200997134
-3.142872390612236
3.3636589446362453
6.7014264604801825
-6.434500705486004
-4.177919916600856
4.113742071627084
-4.080727102312382
-1.2845426027745006
1.0562254309169596
5.846456765046254
-9.498704408695799
-0.7372937308759044
-0.7304581566266908
1.0907718593931242
0.9246037896336571
0.8010753025669247
-6.701784366582257
-8.02289305987102
-3.8903933745703387
4.11164656654341
3.9898161665253253
0.9800096983477914
-0.879265192320716
-0.6685230340531813
-8.934499932709144
0.8996877406592644
4.406003016316817
-4.040343863012856
9.447379180755215
-3.128632274505427
-0.44191837375649534
0.20291732500330287
-0.8715724285062004
3.9071551268977163
0.2378697304147098
8.461097998205602
-0.37856824242411835
6.6967269706486565
6.22454473233285
4.490427636246024
5.497080323765304
2.828524702460093
-7.733337966524334
-1.2875697236624037
2.0529080235594304
0.755410796243227
1.7491841657731637
-1.9980283221527848
-4.553873288533876
-10.003675968185105
-0.5871340720893639
0.7358192237740637
3.5856828209465266
0.7164313947042084
-0.5658815587254958
-0.48037462263021274
5.483960084883632
4.904918368504788
-4.005020859383635
-4.110308645655566