# vtk DataFile Version 1.0
2D Simulation C++
ASCII
DATASET UNSTRUCTURED_GRID
FIELD FieldData 1
NODES 1 2 int
715 1308

POINTS 715 double
0.0 0.0 0.0
5.0 0.0 0.0
5.0 1.0 0.0
0.0 1.0 0.0
0.10000000149011612 1.0 0.0
0.20000000298023224 1.0 0.0
0.30000001192092896 1.0 0.0
0.4000000059604645 1.0 0.0
0.5 1.0 0.0
0.6000000238418579 1.0 0.0
0.699999988079071 1.0 0.0
0.800000011920929 1.0 0.0
0.8999999761581421 1.0 0.0
1.0 1.0 0.0
1.100000023841858 1.0 0.0
1.2000000476837158 1.0 0.0
1.2999999523162842 1.0 0.0
1.399999976158142 1.0 0.0
1.5 1.0 0.0
1.600000023841858 1.0 0.0
1.7000000476837158 1.0 0.0
1.7999999523162842 1.0 0.0
1.899999976158142 1.0 0.0
2.0 1.0 0.0
2.0999999046325684 1.0 0.0
2.200000047683716 1.0 0.0
2.299999952316284 1.0 0.0
2.4000000953674316 1.0 0.0
2.5 1.0 0.0
2.5999999046325684 1.0 0.0
2.700000047683716 1.0 0.0
2.799999952316284 1.0 0.0
2.9000000953674316 1.0 0.0
3.0 1.0 0.0
3.0999999046325684 1.0 0.0
3.200000047683716 1.0 0.0
3.299999952316284 1.0 0.0
3.4000000953674316 1.0 0.0
3.5 1.0 0.0
3.5999999046325684 1.0 0.0
3.700000047683716 1.0 0.0
3.799999952316284 1.0 0.0
3.9000000953674316 1.0 0.0
4.0 1.0 0.0
4.099999904632568 1.0 0.0
4.199999809265137 1.0 0.0
4.300000190734863 1.0 0.0
4.400000095367432 1.0 0.0
4.5 1.0 0.0
4.599999904632568 1.0 0.0
4.699999809265137 1.0 0.0
4.800000190734863 1.0 0.0
4.900000095367432 1.0 0.0
5.0 0.8999999761581421 0.0
5.0 0.800000011920929 0.0
5.0 0.699999988079071 0.0
5.0 0.6000000238418579 0.0
5.0 0.5 0.0
5.0 0.4000000059604645 0.0
5.0 0.30000001192092896 0.0
5.0 0.20000000298023224 0.0
5.0 0.10000000149011612 0.0
4.900000095367432 0.0 0.0
4.800000190734863 0.0 0.0
4.699999809265137 0.0 0.0
4.599999904632568 0.0 0.0
4.5 0.0 0.0
4.400000095367432 0.0 0.0
4.300000190734863 0.0 0.0
4.199999809265137 0.0 0.0
4.099999904632568 0.0 0.0
4.0 0.0 0.0
3.9000000953674316 0.0 0.0
3.799999952316284 0.0 0.0
3.700000047683716 0.0 0.0
3.5999999046325684 0.0 0.0
3.5 0.0 0.0
3.4000000953674316 0.0 0.0
3.299999952316284 0.0 0.0
3.200000047683716 0.0 0.0
3.0999999046325684 0.0 0.0
3.0 0.0 0.0
2.9000000953674316 0.0 0.0
2.799999952316284 0.0 0.0
2.700000047683716 0.0 0.0
2.5999999046325684 0.0 0.0
2.5 0.0 0.0
2.4000000953674316 0.0 0.0
2.299999952316284 0.0 0.0
2.200000047683716 0.0 0.0
2.0999999046325684 0.0 0.0
2.0 0.0 0.0
1.899999976158142 0.0 0.0
1.7999999523162842 0.0 0.0
1.7000000476837158 0.0 0.0
1.600000023841858 0.0 0.0
1.5 0.0 0.0
1.399999976158142 0.0 0.0
1.2999999523162842 0.0 0.0
1.2000000476837158 0.0 0.0
1.100000023841858 0.0 0.0
1.0 0.0 0.0
0.8999999761581421 0.0 0.0
0.800000011920929 0.0 0.0
0.699999988079071 0.0 0.0
0.6000000238418579 0.0 0.0
0.5 0.0 0.0
0.4000000059604645 0.0 0.0
0.30000001192092896 0.0 0.0
0.20000000298023224 0.0 0.0
0.10000000149011612 0.0 0.0
0.0 0.10000000149011612 0.0
0.0 0.20000000298023224 0.0
0.0 0.30000001192092896 0.0
0.0 0.4000000059604645 0.0
0.0 0.5 0.0
0.0 0.6000000238418579 0.0
0.0 0.699999988079071 0.0
0.0 0.800000011920929 0.0
0.0 0.8999999761581421 0.0
0.7496038675308228 0.5164291858673096 0.0
1.3451675176620483 0.5190238952636719 0.0
1.9462687969207764 0.4963642954826355 0.0
4.456614971160889 0.5060901641845703 0.0
3.864220380783081 0.4866538345813751 0.0
3.249823808670044 0.482722669839859 0.0
2.6500000953674316 0.5 0.0
0.3810288906097412 0.399004191160202 0.0
2.308779239654541 0.3797946870326996 0.0
1.0499999523162842 0.6625000238418579 0.0
1.644740104675293 0.6598879098892212 0.0
4.150000095367432 0.3375000059604645 0.0
3.555316209793091 0.3343118131160736 0.0
2.9446933269500732 0.3401789665222168 0.0
1.6342840194702148 0.3290160894393921 0.0
1.0591840744018555 0.33908534049987793 0.0
2.9654481410980225 0.6753292679786682 0.0
3.5534629821777344 0.6835107207298279 0.0
4.153462886810303 0.6835107207298279 0.0
2.2139804363250732 0.6805098056793213 0.0
0.4914395809173584 0.6739721894264221 0.0
4.691666603088379 0.6916666626930237 0.0
4.691666603088379 0.3083333373069763 0.0
2.4872219562530518 0.7236665487289429 0.0
0.6240421533584595 0.2677222192287445 0.0
2.0697431564331055 0.2657754421234131 0.0
2.5389034748077393 0.26082900166511536 0.0
0.8147311806678772 0.7450684309005737 0.0
1.2897310256958008 0.743314266204834 0.0
1.8853894472122192 0.7450258731842041 0.0
4.382374286651611 0.23655959963798523 0.0
3.910269021987915 0.25668570399284363 0.0
3.1838724613189697 0.25397706031799316 0.0
1.398239254951477 0.2614254057407379 0.0
3.201760768890381 0.7385746240615845 0.0
3.8017609119415283 0.7385746240615845 0.0
4.39177942276001 0.7466779351234436 0.0
0.25301694869995117 0.7458874583244324 0.0
2.7258167266845703 0.7600342631340027 0.0
0.84163498878479 0.2263137847185135 0.0
0.22429518401622772 0.22429518401622772 0.0
2.7605957984924316 0.22504857182502747 0.0
1.8330284357070923 0.2150011658668518 0.0
0.2192869633436203 0.5323538780212402 0.0
4.7908525466918945 0.5038931369781494 0.0
2.466000556945801 0.5376454591751099 0.0
3.7061264514923096 0.17723728716373444 0.0
3.3929696083068848 0.20266839861869812 0.0
1.4905184507369995 0.7937026619911194 0.0
1.2104878425598145 0.20361483097076416 0.0
3.9895122051239014 0.7963851690292358 0.0
3.389512300491333 0.7963851690292358 0.0
0.5652223825454712 0.5070380568504333 0.0
0.44509074091911316 0.19716571271419525 0.0
2.1318352222442627 0.5042122602462769 0.0
1.548349142074585 0.4954715371131897 0.0
3.050636053085327 0.5004673004150391 0.0
0.9511125087738037 0.498258113861084 0.0
3.651650905609131 0.5045284628868103 0.0
4.248488903045654 0.4980509281158447 0.0
1.1537858247756958 0.49593159556388855 0.0
4.050199031829834 0.49993085861206055 0.0
3.464722156524658 0.509624183177948 0.0
1.749653697013855 0.5001751780509949 0.0
2.851828098297119 0.5057260394096375 0.0
2.359710216522217 0.1888567954301834 0.0
2.0499017238616943 0.8199846148490906 0.0
0.6430503129959106 0.8181284070014954 0.0
4.560274600982666 0.1724673956632614 0.0
4.55863094329834 0.8299665451049805 0.0
2.321284055709839 0.8242537379264832 0.0
4.815218925476074 0.8345447778701782 0.0
4.837246894836426 0.16590170562267303 0.0
0.9682294130325317 0.8331464529037476 0.0
1.730908751487732 0.827606201171875 0.0
4.220076560974121 0.17516615986824036 0.0
3.02066969871521 0.18326662480831146 0.0
1.5634372234344482 0.17044226825237274 0.0
3.035303831100464 0.8294908404350281 0.0
3.627507209777832 0.8360387086868286 0.0
4.2312469482421875 0.8315803408622742 0.0
4.618130683898926 0.5361976027488708 0.0
0.40311703085899353 0.8369210362434387 0.0
1.1473191976547241 0.8458209037780762 0.0
4.052680969238281 0.15417908132076263 0.0
2.020958423614502 0.6394158005714417 0.0
0.662188708782196 0.6447370648384094 0.0
4.5115838050842285 0.3538685142993927 0.0
1.0221220254898071 0.15309639275074005 0.0
0.3837882876396179 0.5515117049217224 0.0
3.548090934753418 0.15800617635250092 0.0
1.4348299503326416 0.6465393304824829 0.0
3.765170097351074 0.3534606993198395 0.0
3.3348300457000732 0.3534606993198395 0.0
1.2546738386154175 0.36384353041648865 0.0
3.945326089859009 0.636156439781189 0.0
3.3412928581237793 0.637225866317749 0.0
2.1904795169830322 0.17066854238510132 0.0
0.16392111778259277 0.38331863284111023 0.0
2.87723445892334 0.8265392184257507 0.0
4.8459792137146 0.6499902606010437 0.0
4.845625400543213 0.34837812185287476 0.0
2.771622896194458 0.38129922747612 0.0
4.5222978591918945 0.6578375697135925 0.0
2.604464530944824 0.8240283727645874 0.0
1.8544400930404663 0.3751189708709717 0.0
0.8566747903823853 0.38255012035369873 0.0
2.2932615280151367 0.5369129776954651 0.0
2.620572805404663 0.6496497392654419 0.0
0.7172287106513977 0.1490369737148285 0.0
0.1410960853099823 0.8303417563438416 0.0
1.7142322063446045 0.142862930893898 0.0
2.6314175128936768 0.14492936432361603 0.0
1.9832650423049927 0.1408119648694992 0.0
2.445650577545166 0.370038241147995 0.0
2.885042667388916 0.1455758661031723 0.0
0.13937503099441528 0.6546638011932373 0.0
0.9110832810401917 0.6349053978919983 0.0
3.088575839996338 0.3613528311252594 0.0
4.296638011932373 0.3563385307788849 0.0
1.1930090188980103 0.6355591416358948 0.0
1.788455843925476 0.6387236714363098 0.0
4.006990909576416 0.3644408583641052 0.0
1.4459187984466553 0.39242905378341675 0.0
4.354081153869629 0.6075709462165833 0.0
3.7540812492370605 0.6075709462165833 0.0
3.1591691970825195 0.6018876433372498 0.0
2.7615907192230225 0.6205627918243408 0.0
2.36276912689209 0.6735464930534363 0.0
1.3681535720825195 0.8630191683769226 0.0
3.8318464756011963 0.1369808316230774 0.0
3.275517463684082 0.10712132602930069 0.0
0.5630941987037659 0.12814241647720337 0.0
1.3237862586975098 0.10638008266687393 0.0
3.2733232975006104 0.8705052733421326 0.0
3.8733232021331787 0.8705052733421326 0.0
2.0396511554718018 0.38928428292274475 0.0
2.2168734073638916 0.8508136868476868 0.0
0.5163488388061523 0.3409615159034729 0.0
0.6547463536262512 0.3955095112323761 0.0
1.9480526447296143 0.8710126876831055 0.0
4.689375877380371 0.13700176775455475 0.0
4.698264122009277 0.8675068616867065 0.0
0.7578787803649902 0.8698469996452332 0.0
2.479548454284668 0.13692785799503326 0.0
2.4562506675720215 0.8735422492027283 0.0
2.171211004257202 0.3573116958141327 0.0
3.5117530822753906 0.853193998336792 0.0
4.107914924621582 0.8658969402313232 0.0
2.640726327896118 0.354434996843338 0.0
4.346996307373047 0.1279495507478714 0.0
0.3128283619880676 0.11246757209300995 0.0
0.136248379945755 0.12152919173240662 0.0
4.453908443450928 0.8629162907600403 0.0
1.6064813137054443 0.8679171800613403 0.0
0.3380795121192932 0.6626779437065125 0.0
0.5102446675300598 0.875635027885437 0.0
0.7425088882446289 0.2989330589771271 0.0
3.1349449157714844 0.10448489338159561 0.0
1.3287748098373413 0.6181886196136475 0.0
3.871795415878296 0.38215625286102295 0.0
3.229135036468506 0.3810797333717346 0.0
0.28971707820892334 0.8759857416152954 0.0
0.9214505553245544 0.11992674320936203 0.0
1.9219478368759155 0.6237660050392151 0.0
1.530794620513916 0.29603153467178345 0.0
3.072223663330078 0.7044162750244141 0.0
3.6722235679626465 0.7044162750244141 0.0
[...]
POINT_DATA 715
SCALARS Psi double
LOOKUP_TABLE default
0.0
0.0
1.0
1.0
1.0
1.0
1.0
1.0
1.0
1.0
1.0
1.0
1.0
1.0
1.0
1.0
1.0
1.0
1.0
1.0
1.0
1.0
1.0
1.0
1.0
1.0
1.0
1.0
1.0
1.0
1.0
1.0
1.0
1.0
1.0
1.0
1.0
1.0
1.0
1.0
1.0
1.0
1.0
1.0
1.0
1.0
1.0
1.0
1.0
1.0
1.0
1.0
1.0
0.9193981592421977
0.8660664722141233
0.7650713871978394
0.6284229499737355
0.470390818683188
0.31128263590824806
0.1728129433111191
0.07061519949568651
0.018558795756145142
0.0
0.0
0.0
0.0
0.0
0.0
0.0
0.0
0.0
0.0
0.0
0.0
0.0
0.0
0.0
0.0
0.0
0.0
0.0
0.0
0.0
0.0
0.0
0.0
0.0
0.0
0.0
0.0
0.0
0.0
0.0
0.0
0.0
0.0
0.0
0.0
0.0
0.0
0.0
0.0
0.0
0.0
-0.0
0.0
0.0
0.0
0.0
0.0
0.0
0.02734900243807111
0.10769486851758228
0.20923050007761593
0.3108739051665101
0.41246452127210637
0.5108191443440475
0.6026380392771445
0.678450923910263
0.6416408944180454
0.5300712909567149
0.5436204742933539
0.5007671430902507
0.4941255672646274
0.4699282464221738
0.47111472696065543
0.5088774271286817
0.3204061837568267
0.3065265777106554
0.7747645176254971
0.766505444435058
0.226618932477989
0.22279130319438567
0.24396478500509372
0.22701597882476096
0.25487144308785603
0.7931987206088073
0.7923898717768605
0.7897895892984753
0.7981864858499135
0.7598883137583877
0.7868804899453667
0.17547481663745956
0.8543909087845272
0.15684064833980696
0.14327497132844724
0.138020996348987
0.881615437005069
0.8776466822710176
0.876547897808318
0.0907227997628632
0.12163272704895356
0.12217039338849331
0.13536199321217424
0.8700830268963489
0.8648818454786003
0.8699082398341277
0.7934742251552878
0.900390621422238
0.11060393714631828
0.1112714660004717
0.09466012525259039
0.08179277077563062
0.46456875318140856
0.47933363702224896
0.5723210868532983
0.03979181794425086
0.06228973170128911
0.9299663183074436
0.06977874521585052
0.9270236699264919
0.9274698771427746
0.4954586982176673
0.07117576083199773
0.5148449843695158
0.5012967687780061
0.5064824712854468
0.5098918169206906
0.5019380009246416
0.48514705479340353
0.5069636165568481
0.4910603538309873
0.5126175137550288
0.5076275355884562
0.5184991228476674
0.056441717712350625
0.9538067772573258
0.9590474416655638
0.03644374533966293
0.9539877205929732
0.9594751133241618
0.9427632363528686
0.027771437303060243
0.9639154128361388
0.9568995740281061
0.03993900089528971
0.05151929223350065
0.04067560379014712
0.9655459711131745
0.9619364366103419
0.9588134306499491
0.5404949362661826
0.9786724375753361
0.9709332788622151
0.029491578694897116
0.7352769917987482
0.7344621492865663
0.24306841254738962
0.03679832381612772
0.5292908445744635
0.028851791487875568
0.7489972050707605
0.2507729019114963
0.2553484864648677
0.28700636718038375
0.7187195642714984
0.7253627684910405
0.04355731751908764
0.29479707383036824
0.9645670259978707
0.7154257747688579
0.22598640114101748
0.3099856646020981
0.7443351178612724
0.9599362318958226
0.29841219854956835
0.322325990653099
0.5703371079649266
0.7546902331617668
0.037263701166664394
0.8225968950941843
0.02536485394251687
0.026672356252398954
0.024688336463870034
0.29199206256951954
0.025817071560991542
0.5837993128875111
0.7316973651549817
0.2741994567039678
0.25150957450162625
0.7338378403795494
0.7334970618694673
0.268764724339126
0.32948090101019534
0.6679976932204794
0.6741413502007196
0.6743232794078
0.7094702994077103
0.7867027136116426
0.9791964168508929
0.017523676277114795
0.0018622835613268487
0.021263038786503336
0.0011087895402785517
0.9816309526997462
0.9826281625349584
0.32212933464050836
0.9761350934103764
0.249636432999875
0.3344928228969754
0.985369766859023
0.019427804961570278
0.9790289935801798
0.9849567320257475
0.022788535790515048
0.9841859189299869
0.27147290572079574
0.9702134685181608
0.9806080166512112
0.26839125418298987
0.00570815274748055
0.006011427797012182
0.02259000357511833
0.9776332966668735
0.9812335373980287
0.694234902992282
0.9922281693346638
0.19999051611444782
0.003035840278788294
0.7057671421798223
0.2967239172502715
0.3021404744536593
1.0187570081379824
0.021837965494880856
0.7100332947305049
0.18105091906174064
0.8305429980825666
0.8199373848663305
0.8167420031785516
1.0057457129667744
0.6891959600093511
0.004118128030770424
0.9948140747126455
0.9943923635068197
0.15506233978321113
0.3230280608432749
0.18149479508629462
0.9957620620948648
0.0036463022832105203
0.869189694060788
0.2910258050298768
0.12751222808673238
0.3409446783281838
0.011383519592148967
0.16199700978552364
0.9905712085513336
0.9901134422822587
0.12432314032949955
0.1894695185040141
-0.001531741511849569
0.44008353162585173
-0.003396214642744461
0.4047658984418791
0.19089593210191716
-0.0037115866475311674
0.0007818842080998305
0.4099450178580246
0.4270439595631569
0.41467264719709274
0.5925620331406546
0.5912044657622635
0.0031113927226703256
0.552317096410609
0.0016180024302540736
0.6949160327515986
0.1271646853652287
0.6021287804141884
1.0010912086277763
0.8069860284781388
0.17323714360620693
0.804986588190576
0.1817119425033136
0.20012500142700054
0.8172299661743647
0.9983440725893692
0.0016286047054243796
0.13083399168875198
0.8665672458335701
0.13263789214065722
0.3305112413806205
0.6191211695961524
0.8290902961611015
0.10385527284353221
0.4081942933286112
0.4167346393420077
0.6113281370836896
0.5995299123992607
0.5933513508386767
0.0203497863606808
0.6538770195670196
0.1374353924233593
0.8670721273156335
0.8635204811901009
0.595894372790759
0.40823782080212223
0.4230793992814099
0.0038042025416214634
0.5897962503751119
0.8686965424471772
0.13290255695660094
1.0063211361719913
0.19323110027902357
0.5743218008092595
0.6579472072541059
0.40530285456486165
0.8631456577508972
0.5815420953054825
0.9991992592385204
0.45029419770397133
0.9884958819761421
0.987666558784019
0.8965429898994268
0.8673495667566165
0.9585298603986225
0.005839406172703109
0.4240166894411863
0.7085057751891358
0.5769110366664556
0.6828084380918317
0.36559839897355517
0.10309546373366224
-0.0013924880780588045
0.4397513082676195
0.2114406989714974
0.8408456712501122
0.5648303811147241
0.4415598540484617
0.4469948119164606
0.8513457815591499
0.8765997501044084
0.13655072548297723
0.1215495463923148
0.8691654658044102
0.40907181115728314
0.9990658927371768
0.14237999925475311
0.9061346758607309
0.9072539290915543
0.3563991605517794
0.917846753158764
1.0040490348255644
0.11272705715424565
0.14135048835245215
0.6780332031126127
0.32384647507332787
0.6796029103459341
0.6898911237755234
0.0840962817839356
0.6698539529608781
0.3345555980734731
0.33422898869679807
0.0065072618466102865
0.4728250082413974
0.26238536395400885
0.7399482282734862
0.7664667490242506
0.3391094186475365
0.8773981455291453
0.668095793721206
0.6637461508537175
0.6365518433542872
0.007562041889343288
0.007446104234941126
0.12904823323374254
0.8246664609287097
-0.00305689679739872
0.9160108814240179
0.9162275601046673
0.8490637657319038
-0.0033547232001384167
-0.002735734381119858
0.19014139649998887
0.34063251464624233
0.0003054275771398974
1.000423770467467
0.3369940405858509
0.8881553643419989
1.0001643957322388
0.8834821816115279
0.11879868756547315
1.0057850093338276
-0.0013918842041429293
0.1016697290405423
0.9955303575569245
-0.0004176252476939101
0.31754012494676054
0.0005933742760667113
0.6922041461149593
0.003654317009371134
1.001941164397637
1.0043897274613982
0.11129727758250532
0.4931459244399428
0.1494058079052923
0.9977621475822507
0.8866466311895632
0.9988942922162725
0.3268501343087583
0.9993719872270361
1.002798838081487
0.13331830801700223
0.08758298306038012
8.218742055939645e-05
0.2786933854783175
0.6486942640121163
0.5856633344481594
0.412253964697391
0.5638089286976496
1.0039997989934455
0.2555404244930787
0.5717601644866892
0.9999252605546698
0.0003634548784962882
-0.0013037874374486657
0.19364324833174612
0.407158463499749
0.5779415195806029
-0.0017996149390929381
0.921848079158129
1.0051783223058584
0.8847993368698535
0.09056005528676624
0.9150055795330252
0.9091540003971522
0.6339664187935502
0.07672857119029887
0.8966719108972285
-0.001897205904721516
0.27755377178861124
0.0026316526491154757
0.9331377498060567
0.06655409636680645
-0.0014685405368285653
0.588998965951802
0.5399691413480161
1.0042157651348531
1.015445922977635
1.0014581910178597
0.0013086470281135354
0.4333300129408947
0.6801666943611601
0.6879523428800794
0.6822622516597979
0.31907800917459433
0.31535318370936993
0.32931643257707865
0.9440821073261958
1.0353795711048663
0.9973976047112187
0.9947676038003254
0.9634814479050289
0.6847779424365913
0.7573451474331332
-0.001940441087915699
0.06494638131735202
0.7911062960994274
0.7070059622745547
0.22887510252417528
0.8726694955886398
0.08391764362175605
0.07521702164493495
0.7187614969156817
0.621647947656348
0.4344825116855991
0.9980618567180451
1.0011841064778328
0.7750617063624623
0.10035683793828942
0.9314631138147754
0.21050878710199514
0.9524958482565075
0.05269913457005103
1.0003259803630113
0.0021537305940158287
0.3658721497261112
0.6131030129170593
0.3598921780809229
0.8332939489343173
0.0412235473744582
0.5914879010112278
0.3755277388236734
0.839527260884487
-0.0011427780133802259
-0.003476373619812087
0.18944927008064763
0.17344098617466258
0.05607924243524207
0.10338654030548493
0.9457125671349261
0.8419713712053857
0.15910197139784876
0.8016874610749865
0.2030547629526116
0.9068482977750485
0.9040512289039432
0.9035732399619935
-0.004595678411565704
0.9414668307104038
0.35873236316580265
0.21574493251597898
1.0004451812250792
0.1681367574146096
0.5587064095099068
0.7147997555079175
0.611603874178195
0.641126286892771
0.04317634973133581
0.952650031669076
0.951926928802454
0.05486854192611216
0.6962952000593986
-0.006146875326858963
1.0057858665188906
1.0036377907695486
0.03702620918994056
0.04092017429940989
0.895357246100556
0.2519217454246194
0.9484773260621291
0.45007916955728616
0.8604430010761953
-0.00039826945755215044
0.6446849663827666
0.35506763483272297
0.36577054700795686
1.0010986425575465
-0.002072347617030162
0.557340742927002
-0.007555594067694248
0.4132235192769292
0.06739205636699099
-0.0011414180706904636
0.2341779627395687
0.6274294640645431
0.7203129438914705
0.7849288800103855
0.9501469664046642
0.04745350737077366
0.24028260756285622
0.18337335852179687
0.769838986347092
1.0044309885216447
0.23313298341536307
0.06783798270552009
0.18380060007545657
0.05302952123625921
0.9305355899321465
0.04615040126682216
0.20939811790372242
0.7877856792336394
0.7924151471166738
0.8011572006367226
0.40767942466558216
1.0058767053635673
0.3694516354569417
0.9182538348012594
-0.0011993615795616662
0.05049805626229122
0.03934178759421796
0.5967564678352573
0.06967223888254484
0.002097592368746855
0.059880522549206484
0.08157814947363258
0.41235088947682014
0.5622965045332838
0.029680043539259505
0.1927532897735486
-0.0018223354723992922
1.0000563166939274
0.9189232377581065
0.43382588290770663
0.5713815384548651
0.6278249717902725
0.9393330448120755
0.05106058124093489
0.050014969729695324
0.9982433879717721
0.03020408365727383
0.5060822664228434
0.32422897896665304
0.11870471805533747
-0.0008045377005302237
0.7918080613223486
0.949451190395281
0.14404104386403344
0.125454558664524
0.8545619844153819
1.001730073233628
0.04471883839350286
0.9440070253603756
0.9436356277652588
0.44410446585599067
0.4429146961063517
1.0007790076938432
0.21417880509478773
0.3346773015889955
0.3742908295070634
0.0002612346430199253
0.9680384927882396
0.9688772671603822
0.24455594178264925
0.598294121659507
0.8335188329102189
0.8357652323605812
0.18890290130578352
0.8310075455348073
0.23117708940029827
0.8828715537678702
0.8815996881432042
0.6197036042198998
0.8947781900308368
0.6200419725438928
0.05098007083081232
0.9505935155680182
0.39229997625868696
0.6235648437629464
0.37637819560720004
-0.007142632407459615
0.3126978796811803
0.05683178779656639
-0.0004607428298353082
0.5680953014324847
0.11514690705049689
0.22029024047052395
0.08609451850793702
0.800310937521195
0.8744764049491497
0.9760379107300623
0.5854078559648598
0.0032577357918638305
0.4037369272475494
0.07770183225831033
0.9991970186439523
1.0001918783723902
-0.0009396655909786304
0.05792914838700247
0.9463573309230219
0.00041073724606545734
-0.004121557666203795
0.23322780764988532
0.7684634235134211
0.43686529655913414
1.0027918812564733
0.22220288267791935
0.820488999233512
0.19728026191563597
0.8093198142626802
0.19049885855344711
0.9786993504016694
0.0016168921868866797
0.40806209316026365
1.0008860867409606
0.958699856891041
0.04302165396766002

SCALARS Omega double
LOOKUP_TABLE default
-7.676494191443375
-1.180062354373146
8.579852248770571
15.920185854714456
36.51089086706652
-6.4777671578427976
2.4232633294596293
-4.464725780769996
-0.4278334998880907
1.923481479901912
0.04826019639922618
-0.6368353253796188
0.4851335353597078
1.1460212934559608
0.231819248492385
0.8261062455160253
0.5474747813271675
0.795919368043611
1.557180786780829
-0.08801923647249937
1.4150850069483172
1.244376159359095
-0.4116227423320303
0.48941657177639497
1.0658529692767202
1.0374050289743364
0.7615531547346224
0.2385032381353306
0.46040505598522835
1.4206684512081509
1.108409265367892
0.16262044855767363
1.3307006299751654
0.8623452909934487
0.41631759955026854
1.1165312863536119
0.7540784310915261
0.3782102217427501
1.308536180492208
0.6757600655826571
1.3750980155984496
0.6934628262828609
0.43381977972197205
0.3517177983786718
0.9400831339034585
0.7235446138685702
2.120246559158668
0.46440372884454373
-0.4629046266868146
2.1581946108899657
0.8689523509965568
1.8605961204172956
9.581575768627296
-7.841305122245366
0.5704578861622005
2.8642138111687263
1.6384694262225394
-0.10548623524116413
-1.1580873690167999
-2.6447652478960566
-3.301038546420471
-1.5503225996341694
-0.2513923500724398
-0.649545427853356
-1.054111931775613
-0.1347190498018984
-0.7027921958170974
-0.38120532318214534
-1.064596905381428
-0.8165505567128734
-0.31047797427551754
-0.7192858363047059
-0.4580554190773523
0.09662091265969285
-1.765379559626035
-0.6487567195826353
0.3874668888481646
-1.4923039501265214
-0.5990688572758184
-0.299705773502267
-1.1074686409652112
-0.8069518453002833
-0.42522274938472016
-1.1030809235160377
-0.8864314218871234
-1.4157279839196764
-0.17021512436384204
-0.5591035075913658
-0.9688902569706356
-1.083294367062551
-0.743278884192299
0.6874404078709828
-1.3967327312413789
-1.2264321916387757
0.20500399565227215
-0.8518547585977274
-1.119071965432073
-0.16273932157346174
-0.5575784797018876
-1.526394830379943
-1.5309236073695807
-0.39329958744642335
-1.9061940700406848
-0.4859307307159322
-2.0721827991276234
-0.49878712311411977
-0.13993319884017774
-2.0695045560872205
-1.9109538213051411
-0.8190357415020202
0.7511223418452293
-4.5927094388128324
2.6458093218737453
0.31204217546590574
-0.025403726424285213
-0.8569638134369257
1.6497869841663895
-5.889260023426273
-2.3403942339627095
-42.608342537935755
-0.512360297210111
0.5151438280704022
0.10175040715854261
-0.0840803994282852
-0.28936106087347363
-0.2590660815139601
0.1219668979061522
-0.3761162421026057
-1.9975507013148857
3.128404153249991
2.8751611840692957
-2.953753442187155
-2.9529178380705656
-2.6873364365740646
-2.849431354846611
-2.0454897242494967
3.148064911754732
3.1746623103346527
3.1287288176723878
3.1567150913469275
2.3171707533395485
3.172285245029698
-3.557348383535227
3.9765863855864607
-2.5859919830096065
-4.1706863721564575
-4.13706039607749
5.215853388659364
4.356228112819836
4.174695484177847
-4.824031822673865
-4.437980039857809
-4.325329085979121
-4.100096552583602
4.317707267154195
4.128444887158045
4.3648134314864695
1.9688175729590724
4.643056952322476
-3.9674953541089075
-1.702844596930049
-4.742387313570339
-5.07915969378722
-1.421684168382912
-0.22022968086493724
0.7613928361833235
-6.28058151169465
-5.452106096284907
5.0537566388465
-5.1518778574403274
5.262937445422309
5.072056338517102
-1.2640439510351527
-4.899421216466239
0.2196243231991343
0.1342925475706567
0.09148129562549207
-0.1702134674297287
0.04559219146572098
-0.17324843500925072
0.06450088178893797
-0.09564645518168532
0.1586173067225907
0.1950942743875971
0.21623515899981827
-5.608609243077795
5.379964364259112
7.332000757517954
-5.751720023223484
5.851294473707423
5.871960894917481
6.146319286976189
-5.336282799161741
5.641643045650938
5.246984051481184
-5.5742489134124895
-5.469002596366716
-6.386708658377422
6.500698859901165
5.619879961064254
5.751159866198169
0.3809631437957939
13.251660882424833
5.6012259395549835
-5.53555026778436
2.4792391366792477
2.267353678515254
-2.696706162804217
-5.438978943722206
-2.3410096185670772
-5.906960236028814
2.7085768161302144
-2.6267590710292175
-2.5583172450546283
-1.8811208856172101
2.266007376061219
2.4007671125464065
-5.568232950410792
0.08634296187587477
6.051153148091393
2.0338043627658315
-2.538785729768697
-1.9381053416151237
2.5754428806090104
5.626702038332588
-2.032323377208141
-1.268017770707898
0.7515690611791344
2.6896387949915206
-6.110350900291045
-1.866311814434896
-6.139374881067103
-6.073709036899005
-6.256940207900757
-2.159864184163307
-6.1297389149045305
-4.518049604615897
2.48752800719793
-2.3403143946458087
-2.635642422568642
2.56378281407282
2.487332801319321
-2.4519359020201077
-1.5501780118571908
1.7138546155113341
1.8189168846761299
1.8166487624558494
2.192989219236914
3.0868326835036792
5.702619920214291
-6.452528857069792
-7.4425738454582
-6.641437610844874
-8.337872865873646
6.231234499657101
6.781231770280652
-1.7910607389067523
6.651136120736562
-0.9135639124391326
-1.0068326317752043
6.5397841740656695
-5.302030068357366
7.9204946816767965
6.006427712594441
-6.0668906288067745
5.58736052122096
-2.398667482629522
5.587595101476696
6.964786660780929
-2.4190952280042546
-8.279167158719833
-10.849663931204171
-8.805223749547928
6.515411289688809
5.740786111217071
-1.0357441924410242
7.100547244475135
-2.1676989511376132
-7.769013358714179
2.234088740324636
-2.1176136275740296
-2.041348815416289
23.70250172291052
-6.2147100683714775
2.232204024136875
-3.47052515002473
3.6949966384915713
3.479835715922875
3.478387882239142
7.460878906409226
1.6265921316533463
-8.21515921561616
8.27252094602949
6.795779217641295
-1.4502446754589147
-1.8251750592020375
-3.53350028452925
6.683625816540076
-6.599240507377154
4.167412940443761
-2.186449027261103
-3.7597992091445276
-0.44600976322519426
-6.217167267223909
3.282482989342431
7.429925773265026
5.5736361953370395
-4.3382752586615965
-3.413584438201441
-9.95385487855886
-0.5672933278701618
-7.958077253360233
-1.4071398531836696
-3.3408022748410406
-8.550865306025813
-7.766679878165719
-0.9243061627485043
-0.7014473985833013
-0.8346796103548936
0.7763175068055527
1.0259888338869074
-7.114262809349093
1.4775152678304968
-9.031327005710674
2.046402482311697
-4.237146315475047
-4.132623290336879
9.420832585046965
3.3668576380776547
-3.1135020033374143
3.3581726309462594
-3.47302431780055
-3.2611875035117386
3.4772578047411313
6.706957700982131
-6.302535683608287
-4.28171689699078
4.157299507774007
-4.164454133473108
-1.2838504785612077
1.194306665071483
6.204979582519659
-9.902167789240849
-0.7845377038408496
-0.7309134480383289
1.1459077383235416
1.0465571173297998
0.9259412772629811
-6.702138583834557
-8.023511923303449
-3.908715888290429
4.230321926311853
4.123135588226904
0.9923355445977631
-0.9281879568680712
-0.7419968357930137
-8.636089176700688
0.9987210615895452
4.409736294172611
-4.173467803039004
9.353711431815105
-3.3442088773673055
-0.44024347910435335
0.20497695987130174
-0.9747092608331908
4.020213099912077
0.24138183872291524
8.35295890444359
-0.4545870955788602
6.515504891137018
6.0866929217724834
4.548910434659466
5.499121786320892
2.591620818843882
-7.450993142993885
-1.2885968654822335
2.1620632923069234
0.8507914177023986
1.9097873331514634
-2.287642750672979
-4.62393763261348
-10.0043634009552
-0.6351367749628148
0.7356068866018702
3.718363351660822
0.7400919290094033
-0.5698618117040137
-0.5006274666826698
5.486250246726773
4.9041386005766965
-4.097160169751321
-4.246216901705051
4.057226836128873