# vtk DataFile Version 1.0
2D Simulation C++
ASCII
DATASET UNSTRUCTURED_GRID
FIELD FieldData 1
NODES 1 2 int
715 1308

POINTS 715 double
0.0 0.0 0.0
5.0 0.0 0.0
5.0 1.0 0.0
0.0 1.0 0.0
0.10000000149011612 1.0 0.0
0.20000000298023224 1.0 0.0
0.30000001192092896 1.0 0.0
0.4000000059604645 1.0 0.0
0.5 1.0 0.0
0.6000000238418579 1.0 0.0
0.699999988079071 1.0 0.0
0.800000011920929 1.0 0.0
0.8999999761581421 1.0 0.0
1.0 1.0 0.0
1.100000023841858 1.0 0.0
1.2000000476837158 1.0 0.0
1.2999999523162842 1.0 0.0
1.399999976158142 1.0 0.0
1.5 1.0 0.0
1.600000023841858 1.0 0.0
1.7000000476837158 1.0 0.0
1.7999999523162842 1.0 0.0
1.899999976158142 1.0 0.0
2.0 1.0 0.0
2.0999999046325684 1.0 0.0
2.200000047683716 1.0 0.0
2.299999952316284 1.0 0.0
2.4000000953674316 1.0 0.0
2.5 1.0 0.0
2.5999999046325684 1.0 0.0
2.700000047683716 1.0 0.0
2.799999952316284 1.0 0.0
2.9000000953674316 1.0 0.0
3.0 1.0 0.0
3.0999999046325684 1.0 0.0
3.200000047683716 1.0 0.0
3.299999952316284 1.0 0.0
3.4000000953674316 1.0 0.0
3.5 1.0 0.0
3.5999999046325684 1.0 0.0
3.700000047683716 1.0 0.0
3.799999952316284 1.0 0.0
3.9000000953674316 1.0 0.0
4.0 1.0 0.0
4.099999904632568 1.0 0.0
4.199999809265137 1.0 0.0
4.300000190734863 1.0 0.0
4.400000095367432 1.0 0.0
4.5 1.0 0.0
4.599999904632568 1.0 0.0
4.699999809265137 1.0 0.0
4.800000190734863 1.0 0.0
4.900000095367432 1.0 0.0
5.0 0.8999999761581421 0.0
5.0 0.800000011920929 0.0
5.0 0.699999988079071 0.0
5.0 0.6000000238418579 0.0
5.0 0.5 0.0
5.0 0.4000000059604645 0.0
5.0 0.30000001192092896 0.0
5.0 0.20000000298023224 0.0
5.0 0.10000000149011612 0.0
4.900000095367432 0.0 0.0
4.800000190734863 0.0 0.0
4.699999809265137 0.0 0.0
4.599999904632568 0.0 0.0
4.5 0.0 0.0
4.400000095367432 0.0 0.0
4.300000190734863 0.0 0.0
4.199999809265137 0.0 0.0
4.099999904632568 0.0 0.0
4.0 0.0 0.0
3.9000000953674316 0.0 0.0
3.799999952316284 0.0 0.0
3.700000047683716 0.0 0.0
3.5999999046325684 0.0 0.0
3.5 0.0 0.0
3.4000000953674316 0.0 0.0
3.299999952316284 0.0 0.0
3.200000047683716 0.0 0.0
3.0999999046325684 0.0 0.0
3.0 0.0 0.0
2.9000000953674316 0.0 0.0
2.799999952316284 0.0 0.0
2.700000047683716 0.0 0.0
2.5999999046325684 0.0 0.0
2.5 0.0 0.0
2.4000000953674316 0.0 0.0
2.299999952316284 0.0 0.0
2.200000047683716 0.0 0.0
2.0999999046325684 0.0 0.0
2.0 0.0 0.0
1.899999976158142 0.0 0.0
1.7999999523162842 0.0 0.0
1.7000000476837158 0.0 0.0
1.600000023841858 0.0 0.0
1.5 0.0 0.0
1.399999976158142 0.0 0.0
1.2999999523162842 0.0 0.0
1.2000000476837158 0.0 0.0
1.100000023841858 0.0 0.0
1.0 0.0 0.0
0.8999999761581421 0.0 0.0
0.800000011920929 0.0 0.0
0.699999988079071 0.0 0.0
0.6000000238418579 0.0 0.0
0.5 0.0 0.0
0.4000000059604645 0.0 0.0
0.30000001192092896 0.0 0.0
0.20000000298023224 0.0 0.0
0.10000000149011612 0.0 0.0
0.0 0.10000000149011612 0.0
0.0 0.20000000298023224 0.0
0.0 0.30000001192092896 0.0
0.0 0.4000000059604645 0.0
0.0 0.5 0.0
0.0 0.6000000238418579 0.0
0.0 0.699999988079071 0.0
0.0 0.800000011920929 0.0
0.0 0.8999999761581421 0.0
0.7496038675308228 0.5164291858673096 0.0
1.3451675176620483 0.5190238952636719 0.0
1.9462687969207764 0.4963642954826355 0.0
4.456614971160889 0.5060901641845703 0.0
3.864220380783081 0.4866538345813751 0.0
3.249823808670044 0.482722669839859 0.0
2.6500000953674316 0.5 0.0
0.3810288906097412 0.399004191160202 0.0
2.308779239654541 0.3797946870326996 0.0
1.0499999523162842 0.6625000238418579 0.0
1.644740104675293 0.6598879098892212 0.0
4.150000095367432 0.3375000059604645 0.0
3.555316209793091 0.3343118131160736 0.0
2.9446933269500732 0.3401789665222168 0.0
1.6342840194702148 0.3290160894393921 0.0
1.0591840744018555 0.33908534049987793 0.0
2.9654481410980225 0.6753292679786682 0.0
3.5534629821777344 0.6835107207298279 0.0
4.153462886810303 0.6835107207298279 0.0
2.2139804363250732 0.6805098056793213 0.0
0.4914395809173584 0.6739721894264221 0.0
4.691666603088379 0.6916666626930237 0.0
4.691666603088379 0.3083333373069763 0.0
2.4872219562530518 0.7236665487289429 0.0
0.6240421533584595 0.2677222192287445 0.0
2.0697431564331055 0.2657754421234131 0.0
2.5389034748077393 0.26082900166511536 0.0
0.8147311806678772 0.7450684309005737 0.0
1.2897310256958008 0.743314266204834 0.0
1.8853894472122192 0.7450258731842041 0.0
4.382374286651611 0.23655959963798523 0.0
3.910269021987915 0.25668570399284363 0.0
3.1838724613189697 0.25397706031799316 0.0
1.398239254951477 0.2614254057407379 0.0
3.201760768890381 0.7385746240615845 0.0
3.8017609119415283 0.7385746240615845 0.0
4.39177942276001 0.7466779351234436 0.0
0.25301694869995117 0.7458874583244324 0.0
2.7258167266845703 0.7600342631340027 0.0
0.84163498878479 0.2263137847185135 0.0
0.22429518401622772 0.22429518401622772 0.0
2.7605957984924316 0.22504857182502747 0.0
1.8330284357070923 0.2150011658668518 0.0
0.2192869633436203 0.5323538780212402 0.0
4.7908525466918945 0.5038931369781494 0.0
2.466000556945801 0.5376454591751099 0.0
3.7061264514923096 0.17723728716373444 0.0
3.3929696083068848 0.20266839861869812 0.0
1.4905184507369995 0.7937026619911194 0.0
1.2104878425598145 0.20361483097076416 0.0
3.9895122051239014 0.7963851690292358 0.0
3.389512300491333 0.7963851690292358 0.0
0.5652223825454712 0.5070380568504333 0.0
0.44509074091911316 0.19716571271419525 0.0
2.1318352222442627 0.5042122602462769 0.0
1.548349142074585 0.4954715371131897 0.0
3.050636053085327 0.5004673004150391 0.0
0.9511125087738037 0.498258113861084 0.0
3.651650905609131 0.5045284628868103 0.0
4.248488903045654 0.4980509281158447 0.0
1.1537858247756958 0.49593159556388855 0.0
4.050199031829834 0.49993085861206055 0.0
3.464722156524658 0.509624183177948 0.0
1.749653697013855 0.5001751780509949 0.0
2.851828098297119 0.5057260394096375 0.0
2.359710216522217 0.1888567954301834 0.0
2.0499017238616943 0.8199846148490906 0.0
0.6430503129959106 0.8181284070014954 0.0
4.560274600982666 0.1724673956632614 0.0
4.55863094329834 0.8299665451049805 0.0
2.321284055709839 0.8242537379264832 0.0
4.815218925476074 0.8345447778701782 0.0
4.837246894836426 0.16590170562267303 0.0
0.9682294130325317 0.8331464529037476 0.0
1.730908751487732 0.827606201171875 0.0
4.220076560974121 0.17516615986824036 0.0
3.02066969871521 0.18326662480831146 0.0
1.5634372234344482 0.17044226825237274 0.0
3.035303831100464 0.8294908404350281 0.0
3.627507209777832 0.8360387086868286 0.0
4.2312469482421875 0.8315803408622742 0.0
4.618130683898926 0.5361976027488708 0.0
0.40311703085899353 0.8369210362434387 0.0
1.1473191976547241 0.8458209037780762 0.0
4.052680969238281 0.15417908132076263 0.0
2.020958423614502 0.6394158005714417 0.0
0.662188708782196 0.6447370648384094 0.0
4.5115838050842285 0.3538685142993927 0.0
1.0221220254898071 0.15309639275074005 0.0
0.3837882876396179 0.5515117049217224 0.0
3.548090934753418 0.15800617635250092 0.0
1.4348299503326416 0.6465393304824829 0.0
3.765170097351074 0.3534606993198395 0.0
3.3348300457000732 0.3534606993198395 0.0
1.2546738386154175 0.36384353041648865 0.0
3.945326089859009 0.636156439781189 0.0
3.3412928581237793 0.637225866317749 0.0
2.1904795169830322 0.17066854238510132 0.0
0.16392111778259277 0.38331863284111023 0.0
2.87723445892334 0.8265392184257507 0.0
4.8459792137146 0.6499902606010437 0.0
4.845625400543213 0.34837812185287476 0.0
2.771622896194458 0.38129922747612 0.0
4.5222978591918945 0.6578375697135925 0.0
2.604464530944824 0.8240283727645874 0.0
1.8544400930404663 0.3751189708709717 0.0
0.8566747903823853 0.38255012035369873 0.0
2.2932615280151367 0.5369129776954651 0.0
2.620572805404663 0.6496497392654419 0.0
0.7172287106513977 0.1490369737148285 0.0
0.1410960853099823 0.8303417563438416 0.0
1.7142322063446045 0.142862930893898 0.0
2.6314175128936768 0.14492936432361603 0.0
1.9832650423049927 0.1408119648694992 0.0
2.445650577545166 0.370038241147995 0.0
2.885042667388916 0.1455758661031723 0.0
0.13937503099441528 0.6546638011932373 0.0
0.9110832810401917 0.6349053978919983 0.0
3.088575839996338 0.3613528311252594 0.0
4.296638011932373 0.3563385307788849 0.0
1.1930090188980103 0.6355591416358948 0.0
1.788455843925476 0.6387236714363098 0.0
4.006990909576416 0.3644408583641052 0.0
1.4459187984466553 0.39242905378341675 0.0
4.354081153869629 0.6075709462165833 0.0
3.7540812492370605 0.6075709462165833 0.0
3.1591691970825195 0.6018876433372498 0.0
2.7615907192230225 0.6205627918243408 0.0
2.36276912689209 0.6735464930534363 0.0
1.3681535720825195 0.8630191683769226 0.0
3.8318464756011963 0.1369808316230774 0.0
3.275517463684082 0.10712132602930069 0.0
0.5630941987037659 0.12814241647720337 0.0
1.3237862586975098 0.10638008266687393 0.0
3.2733232975006104 0.8705052733421326 0.0
3.8733232021331787 0.8705052733421326 0.0
2.0396511554718018 0.38928428292274475 0.0
2.2168734073638916 0.8508136868476868 0.0
0.5163488388061523 0.3409615159034729 0.0
0.6547463536262512 0.3955095112323761 0.0
1.9480526447296143 0.8710126876831055 0.0
4.689375877380371 0.13700176775455475 0.0
4.698264122009277 0.8675068616867065 0.0
0.7578787803649902 0.8698469996452332 0.0
2.479548454284668 0.13692785799503326 0.0
2.4562506675720215 0.8735422492027283 0.0
2.171211004257202 0.3573116958141327 0.0
3.5117530822753906 0.853193998336792 0.0
4.107914924621582 0.8658969402313232 0.0
2.640726327896118 0.354434996843338 0.0
4.346996307373047 0.1279495507478714 0.0
0.3128283619880676 0.11246757209300995 0.0
0.136248379945755 0.12152919173240662 0.0
4.453908443450928 0.8629162907600403 0.0
1.6064813137054443 0.8679171800613403 0.0
0.3380795121192932 0.6626779437065125 0.0
0.5102446675300598 0.875635027885437 0.0
0.7425088882446289 0.2989330589771271 0.0
3.1349449157714844 0.10448489338159561 0.0
1.3287748098373413 0.6181886196136475 0.0
3.871795415878296 0.38215625286102295 0.0
3.229135036468506 0.3810797333717346 0.0
0.28971707820892334 0.8759857416152954 0.0
0.9214505553245544 0.11992674320936203 0.0
1.9219478368759155 0.6237660050392151 0.0
1.530794620513916 0.29603153467178345 0.0
3.072223663330078 0.7044162750244141 0.0
3.6722235679626465 0.7044162750244141 0.0
[...]
POINT_DATA 715
SCALARS Psi double
LOOKUP_TABLE default
0.0
0.0
1.0
1.0
1.0
1.0
1.0
1.0
1.0
1.0
1.0
1.0
1.0
1.0
1.0
1.0
1.0
1.0
1.0
1.0
1.0
1.0
1.0
1.0
1.0
1.0
1.0
1.0
1.0
1.0
1.0
1.0
1.0
1.0
1.0
1.0
1.0
1.0
1.0
1.0
1.0
1.0
1.0
1.0
1.0
1.0
1.0
1.0
1.0
1.0
1.0
1.0
1.0
0.9194362668254489
0.8661997965241331
0.7652634779047548
0.6285325627549351
0.47031116662370737
0.3110229617074293
0.17250894359083702
0.0704178858528337
0.018498210775265728
0.0
0.0
0.0
0.0
0.0
0.0
0.0
0.0
0.0
0.0
0.0
0.0
0.0
0.0
0.0
0.0
0.0
0.0
0.0
0.0
0.0
0.0
0.0
0.0
0.0
0.0
0.0
0.0
0.0
0.0
0.0
0.0
0.0
0.0
0.0
0.0
0.0
0.0
0.0
0.0
0.0
0.0
-0.0
0.0
0.0
0.0
0.0
0.0
0.0
0.02734898734133307
0.10769483124599687
0.2092304408397037
0.31087382824353715
0.41246443506404806
0.5108190590248395
0.6026379663301252
0.6784508718753751
0.6416408650092605
0.5300726797625981
0.5436245596577489
0.5007215177840217
0.4942791719435672
0.4701819275458585
0.47090997655013767
0.5085853701049359
0.32040593293387487
0.30624884669313923
0.7747685287340539
0.7665175192535003
0.226646869773456
0.22270916740937474
0.24353792242194056
0.22697920521678358
0.2548737138766314
0.7931441773161574
0.7926165573410006
0.790170084712969
0.7982529867871514
0.7598886455962621
0.7871276458108732
0.17523119600810616
0.8544253399139183
0.15684023335469852
0.1431238248446736
0.1377325041901866
0.881616255244663
0.8776481493059165
0.8765750926300103
0.09065523800551986
0.12162483378435558
0.12196414169310332
0.1353561994717352
0.8701211922760499
0.8651427006135491
0.8701438152038109
0.7934742547930097
0.9003968049574077
0.11060372871834465
0.1112713907290636
0.09441340948015733
0.0817432451514274
0.4645686349761151
0.4792883781221288
0.5721736421152366
0.03977386484597672
0.06222089425778693
0.9299633035693886
0.06977797713464885
0.9272022174443684
0.9275474193225687
0.49545885314800037
0.07117556369304118
0.5147715895210938
0.501291400073994
0.5061789875275121
0.509895604436062
0.5021027520965242
0.48539760946783045
0.5069692573609043
0.49136150761831027
0.5126344754632137
0.5076076327581286
0.5181717407923937
0.05633695509456199
0.9538196123096284
0.9590474056473126
0.036388150732292526
0.9540740745715539
0.9594935748675555
0.9428609986123375
0.027669424056230203
0.9639152127820062
0.9568953641333688
0.03992483944511045
0.051398407032392096
0.040670625437851916
0.9655521647076188
0.9619998770025807
0.9589123173282788
0.540611045909748
0.9786724744144171
0.9709333403596776
0.029484777117770245
0.7353273737518637
0.7344631263000351
0.24293800249072392
0.036797813892221136
0.5292907821585885
0.02883187577092413
0.7490024003914715
0.2507983647625584
0.2551253878345081
0.2870076870193601
0.7191277067275175
0.7254314011677117
0.04349096280454493
0.2947969750888814
0.964570257475158
0.7156563728882698
0.2256438504063869
0.3095327842055463
0.7446302580469523
0.9599510745614084
0.2983205582257791
0.3223272279053696
0.5702580987049862
0.7546536427515196
0.037263340113755296
0.8225968625909043
0.025358125353847807
0.026602513431268716
0.024664452576056206
0.29164640447334017
0.025755840300814757
0.5837992341800511
0.7317005958343517
0.2738253348241881
0.2515058328181433
0.7338428103129497
0.7335198807829454
0.2688447627893971
0.3294734141290534
0.6683361568338728
0.6744739064311316
0.6742340159112908
0.7093557494245106
0.7867436284854852
0.9791949083684172
0.017519526621862673
0.0018682598811438798
0.0212628823794798
0.001107593056374517
0.9816401766562325
0.9826647617880644
0.3219765850950704
0.9761392165894257
0.24963607511126581
0.3344927897041637
0.9853656728207465
0.01939786883714378
0.9790670903028321
0.984956477985211
0.022745749881643473
0.9841918145457261
0.2712508100128507
0.9702520901119416
0.980658413947376
0.26796850965699937
0.0057142840510885015
0.006011408373685273
0.022589988498707633
0.977673985761773
0.9812275020155661
0.6942349740562991
0.99222813693357
0.19999036712702334
0.003040239283774697
0.7057721843179856
0.2968148933383021
0.3018488199735391
1.0187569907835985
0.02183759632050521
0.7100663598389526
0.18103293751177837
0.8305297727363042
0.8202021210107511
0.817065095234963
1.0057429860436178
0.6891979216361022
0.0041180108483968745
0.9948173129276541
0.9943912774797937
0.1550621617623157
0.3228416848821513
0.18137392081857862
0.9957626076561478
0.0036470444114714002
0.8691764176573175
0.2910047496086139
0.12751251707770145
0.3409445119659746
0.011372089140168419
0.16199695900281139
0.9905662981992934
0.9901130292636737
0.12412953438493458
0.18940428558354935
-0.0015322338473977171
0.43977170244723546
-0.0033745933153976225
0.40476579932770906
0.1904923921444178
-0.0037115879878730344
0.0007908983800754714
0.41014701531771874
0.426644071553124
0.4146877447646545
0.5925673399456043
0.5912051365884236
0.0031182441089566467
0.552357037787226
0.001622935350016399
0.6948630882995506
0.12685657082066637
0.6021287236878475
1.0010801522902855
0.8073513152617655
0.17323811971643605
0.8051430110283306
0.1815723859401049
0.2000907852521947
0.8172352982967499
0.9983438512905304
0.0016348766538755292
0.13081958960054643
0.8665683384172301
0.13245632306676602
0.33051358769336747
0.6192866668745568
0.8293303190288527
0.10353380460040944
0.40816930185709177
0.41673893185178534
0.611102922271394
0.5996984161249483
0.5937215804209247
0.020349422796727766
0.653876953579629
0.13743331131824155
0.8671498411844275
0.8638089525921886
0.5959001839452088
0.40844998361836465
0.42276525907889984
0.003821560579162788
0.5897948700004951
0.8686988278861051
0.13289029803916944
1.006320758123243
0.19293879005341202
0.5743225878815341
0.6579477380996169
0.40529616810478164
0.8631923319944466
0.5815448772109015
0.9991970336887903
0.4500817685110425
0.9885187319805473
0.9876740634994884
0.8965447018365924
0.8673501324766043
0.9585494426798358
0.0058120735165848895
0.4240165063665269
0.7083792652191251
0.5768943336950759
0.6828422601863897
0.36535413747394724
0.10284442306173117
-0.0013925021045129362
0.43989971061150845
0.21144056575950113
0.8409067385994391
0.5648327999285824
0.44173557738264807
0.4468600247240979
0.8513462124454934
0.8766011281207707
0.1362896430732492
0.12150012176176186
0.86918292017243
0.4088832404885754
0.9990577126276712
0.14237961868677468
0.9062737837246806
0.9074676538355119
0.3559493293595564
0.9178482549696292
1.0040490450423498
0.11260972898644472
0.14117523261245815
0.6784106678028685
0.3238292871288643
0.679888175723848
0.6897710203699536
0.08407345617924546
0.6698599965184865
0.3345876486734281
0.3341112710401602
0.006507252722320822
0.4724650612297138
0.2623825076855396
0.7403222379104903
0.7664865988621902
0.33905586452628733
0.877422090686994
0.6682395909636182
0.6641593114682788
0.6368387643877582
0.007551796243721299
0.00744800646795384
0.12878439185969887
0.8249004268712051
-0.00305772433930314
0.9160110290757311
0.9162665131332953
0.8492921151091811
-0.0033525526813134214
-0.0027239539025140595
0.19014111042735934
0.3405175379747723
0.0003263756487722964
1.000419371619229
0.3369944773442623
0.8883590996145461
1.0001599207269816
0.8834838385063689
0.11877374534787069
1.0057822798314926
-0.0013672143836462836
0.10146255361156813
0.9955393130657735
-0.00040813914313978043
0.317543310973065
0.0005933011224060074
0.6924548201885238
0.003655653784369264
1.0019281272768992
1.0043881906940646
0.11122126773667058
0.49314583476596136
0.14921570302755008
0.9977593129167555
0.8866923600047953
0.9988940858763733
0.32661604072650424
0.9993738119985717
1.002798826860768
0.1333188521824822
0.08753745173230262
8.769926373694299e-05
0.2785252616239486
0.648654172553786
0.5856634859127016
0.41225737354131403
0.5641672539779852
1.0039978429556669
0.25554035527439856
0.5719579979992647
0.9999252743136048
0.0003664992801913632
-0.0012924698342059078
0.1936438675703565
0.4071582736171207
0.5777495680765384
-0.0017970136804323887
0.9220191895016824
1.0051759524165174
0.8847994247276156
0.09055153195387833
0.915024634369074
0.9093304212224712
0.6337949155387748
0.0765973089959229
0.896839113535156
-0.0018973828696333278
0.2771498830459894
0.0026374217201592534
0.9331383347504772
0.06654175652335421
-0.0014652339906564065
0.5889507858153907
0.5399690617535452
1.004205887371585
1.0154459129385955
1.0014455971743423
0.0013115412529331873
0.43327678131322134
0.6801710205710143
0.6879577939276641
0.6822749895773057
0.31916471939254293
0.31546801692064846
0.32890058148575085
0.9441062119328293
1.0353795277921138
0.997393963301633
0.9947775446436935
0.963490410896719
0.6847781031161659
0.7573596815984878
-0.0019227833097690994
0.06494601263875195
0.791071967032441
0.7072174613028582
0.22852214369975737
0.8726694661589127
0.083703056773459
0.07518548527590994
0.7187889324086908
0.6220215984711104
0.4344841400562855
0.9980596581026044
1.0011720710375132
0.7753750801758328
0.10035644441368047
0.9314939343163919
0.21009254497249497
0.9525029586195217
0.05256977158457444
1.0003206022628703
0.002153618275802659
0.3657073500777605
0.6132357684086129
0.35946530339388416
0.833294131904687
0.04118398364497153
0.5914537727049914
0.3755276148135273
0.839541053032636
-0.0011381243916302988
-0.0034587840091904482
0.18944919547700872
0.17310074901388817
0.05603106898001618
0.1032817600958389
0.9457124916337895
0.8419741135273822
0.15910898378193383
0.8016904536548053
0.20304765177284803
0.9068482965819716
0.9042771086026347
0.9036938596539722
-0.004577917801604517
0.94147216111069
0.35873215564769784
0.21558879987879126
1.0004423648449021
0.16804717225806493
0.5585247658891022
0.7150229299887034
0.6116435008066727
0.6411276260260573
0.043173571325234035
0.9526749098497052
0.9520364093220322
0.05474539194701896
0.69629516282475
-0.0061475507633341545
1.0057650488403147
1.0036300874279356
0.03696600716476034
0.04075099476233184
0.8954742810646255
0.25192140192068824
0.9485696364825469
0.45003583330845576
0.8604984891583936
-0.00039827770447858755
0.6446896450458964
0.3551927075041539
0.3655433282065853
1.0010985232405416
-0.002070630795444814
0.5573406602787921
-0.007555585397583854
0.4132227549762032
0.06739174185589704
-0.0011414277920501128
0.23385533392122682
0.6274397444799561
0.7203129015000561
0.784964211941996
0.9501463710113024
0.04744254829543834
0.2400908436462744
0.18330784746148046
0.7698412369830312
1.004416961125437
0.23313272203667695
0.06774819574040036
0.18369599616755483
0.052946443940837834
0.930532569699645
0.046127107367306415
0.2093877757543601
0.7881159303165041
0.7927307985003494
0.801155176743737
0.4076817720075729
1.005876674873107
0.36946333406248355
0.9182754380778797
-0.0011906321722887506
0.05039670205073933
0.03923580164548251
0.5965213939089823
0.06961363186976155
0.0020980003815599816
0.05988049549733182
0.0815780520272568
0.41205213719234784
0.5625544534772738
0.02960555557198758
0.1924270137934719
-0.0018223368943937458
1.0000539404790503
0.9189234770670364
0.4338207061433231
0.5716458910851959
0.627747927110215
0.9393309246660687
0.05104581052166175
0.049948301018489794
0.9982432841269971
0.030191900002967526
0.5060821699263571
0.3239253988993711
0.11870428612779485
-0.000792933997647078
0.7918096375943758
0.9494512360520609
0.14388767042876485
0.1254254314427175
0.8545637412247598
1.0017273313070316
0.04471722622394959
0.9440517940564143
0.9437692452440671
0.4440119250923777
0.44291510169167325
1.0007721286654956
0.21417905079725208
0.33467721939231426
0.3744045211518253
0.0002610890274451131
0.9681177159969881
0.9689127094376245
0.24455573917893952
0.598626652526676
0.8338450667623195
0.8358735107065784
0.18890334198256895
0.8309823443477828
0.2309209504577865
0.8830584426541509
0.8818518521205566
0.6197072242664797
0.8947792302209798
0.6200460395968111
0.05096592247606514
0.9505937735934076
0.39193978343579744
0.6235706420861812
0.3765612276715589
-0.007124569929958899
0.3126975753685979
0.05683155083285267
-0.0004495316337514108
0.5683875467515256
0.11512828175163393
0.22029161737440645
0.08609447676817619
0.800312273009004
0.8744881402517932
0.9760333310464759
0.5852085650653607
0.0032575652487565887
0.4036775393725471
0.07770156331703705
0.9991928932885649
1.0001848351585187
-0.0009279858962670052
0.05792902947925005
0.9464663303906444
0.0004128804046692015
-0.004095660739270237
0.23327538426592098
0.7684677913396242
0.4368651462923102
1.002779666881087
0.22192285717941482
0.8205338613914468
0.1970240848242564
0.8093230020644253
0.19051366445100387
0.978696560449732
0.0016148597761626784
0.40769121804536324
1.0008861351322473
0.9587184728671811
0.0429178336199065

SCALARS Omega double
LOOKUP_TABLE default
-7.676493201135047
-1.1795361806665225
8.582217223754697
15.920187978755854
36.51089311172979
-6.477762745403869
2.423261007525009
-4.464717901827908
-0.4278325010569371
1.9235226927821114
0.04829403282015842
-0.6367425803944193
0.485196582859142
1.1461355038670626
0.23180974736928472
0.8261552170909627
0.5476057066699246
0.7960584974380683
1.5578975282393304
-0.08732816737606337
1.4167289965185823
1.245375823719964
-0.41000146031679563
0.49064158838072
1.0663907789077072
1.0377297760221549
0.7623723800267797
0.23869477901364156
0.46040913643818754
1.4196801151053653
1.1077956949101668
0.16209964953759515
1.3303624551644604
0.8627201237589271
0.4163787698263667
1.116026864841558
0.7545556318482116
0.37849684225039293
1.307543524668622
0.6762745263918736
1.373138038845412
0.6917679026867715
0.43417365498126526
0.35112836158096655
0.938227700041888
0.721987133766976
2.114952575478879
0.4636184008508252
-0.46001316054774766
2.154168304430127
0.8668696136683872
1.8573938115356354
9.579343299180112
-7.849898296243891
0.5748307362232317
2.8754672819985356
1.6451637989895043
-0.10654824606931604
-1.1689426127185403
-2.65567458835149
-3.3100448027975533
-1.5429496481780087
-0.25040834664386474
-0.6471527321763948
-1.052164603064867
-0.13727829853286258
-0.7017381914629015
-0.38250083134654617
-1.0648041999311268
-0.817114072076381
-0.3108609115543007
-0.7195778816765429
-0.458230427851778
0.09611255097584512
-1.7642305947894479
-0.6491790447583474
0.3873625091377978
-1.4903428154421383
-0.5986066407663327
-0.30099003401830726
-1.1047226928197222
-0.8060376219256938
-0.4260179214911794
-1.1013741147944005
-0.8850776395368992
-1.4130242690742354
-0.1727469640946109
-0.5601937892888802
-0.9673441207300307
-1.0811993948494967
-0.7436784759095194
0.6853720177732182
-1.396150561905431
-1.2260364776910655
0.2035222410541832
-0.8517334501216721
-1.1192217225548946
-0.16262433214684707
-0.5575404054820655
-1.5262708501854305
-1.5308559127008134
-0.39316778485291676
-1.9061207863348157
-0.4859038918138154
-2.0721318588788837
-0.49877159072012545
-0.13992931403437608
-2.069493845252648
-1.9109511754096684
-0.8190337617042147
0.7511235361980785
-4.592709767307292
2.64580978053299
0.3120425941082469
-0.025402336068427255
-0.8569636531345179
1.6497885366612834
-5.88926064111063
-2.340397455878515
-42.60834035885137
-0.5123525073446956
0.5156023767233375
0.10230825594928815
-0.07935053501423593
-0.28388597211971645
-0.26847248277063934
0.11638825752443432
-0.37612865841763626
-2.0126531437805455
3.1286370698913935
2.8773530193308097
-2.9633919473959636
-2.9633217882672915
-2.7101423081017657
-2.851543599351739
-2.0454182300945254
3.1566302907275596
3.1914708579475835
3.1486574130887575
3.16872219776354
2.3172055302767682
3.1893898255941338
-3.576654582797334
3.9857742539472607
-2.586030909740139
-4.179536513234926
-4.150180695480406
5.215824688934645
4.3560577359612775
4.177253522515537
-4.831919275689133
-4.4458091334112115
-4.332041781561761
-4.100280481129406
4.32614135112658
4.139611198711123
4.373895015288932
1.9688283106830669
4.649775518856186
-3.96756712078093
-1.7028446513360858
-4.748184885095117
-5.08034289218806
-1.4216896644704409
-0.22211535830508702
0.7644065722315218
-6.28075414113265
-5.449694362600043
5.052514269981816
-5.152009380006649
5.261350619304892
5.074863165385449
-1.264072539889025
-4.8994306048514185
0.22107743967686688
0.1346413042669931
0.08188708915408552
-0.17009629077783592
0.04956480479738075
-0.16673537746059733
0.06481503942369317
-0.08733275764441623
0.15819567572039334
0.19559072968659763
0.20866807257310746
-5.604013412539077
5.376841072657194
7.331894480229187
-5.746652628226207
5.8441048512321325
5.869661129412595
6.144236173207728
-5.325120010121723
5.64133347789648
5.243504562739364
-5.573721868523528
-5.4615764019154875
-6.385451726642858
6.502083498602296
5.611348967633096
5.742255310337318
0.3884773909183944
13.25164975668794
5.60091754297727
-5.534898303370731
2.4883122537424907
2.267420845015872
-2.7138241842721005
-5.439210130788327
-2.3410269584654775
-5.902777189552351
2.709206483102364
-2.6351590547031956
-2.5731619226705
-1.8809708435092771
2.287865172939723
2.411998217875735
-5.563664361780792
0.08634556617692196
6.053100752331769
2.0524073777094105
-2.5621453047734626
-1.960640874175274
2.5958879554922283
5.628074431220664
-2.037762596575393
-1.268061049884919
0.7566052687996974
2.7006941877928594
-6.110416404948378
-1.8663069327533184
-6.136028052822815
-6.059532759432676
-6.249391984478664
-2.1791972623007076
-6.112020275991131
-4.518056439313555
2.487724997361049
-2.3596611591845402
-2.6468302841972657
2.564075253900439
2.491217718278143
-2.4596380498235173
-1.5503259066318789
1.7329277527285967
1.8367452356427543
1.821433600733812
2.200452682120675
3.0984219045911217
5.702062422128642
-6.450654156303677
-7.4282767597568995
-6.641440950185626
-8.337984678603274
6.225445918072707
6.763974246832958
-1.8001373970957213
6.6456385708406085
-0.9135922381748524
-1.0068935221567588
6.534882266081626
-5.289392478631106
7.906871926437637
6.006260943617009
-6.0500615528742845
5.584303453031128
-2.412734321542646
5.579163168634386
6.948293553505533
-2.443160420712731
-8.26951122108809
-10.849654027216204
-8.805221562944213
6.500560078284889
5.738807539694924
-1.035736052520141
7.100504813912803
-2.167753142645885
-7.748175619217618
2.2344951250405125
-2.123851897788359
-2.0575507569034444
23.702486306149122
-6.21482808532623
2.238207871394322
-3.471396400930441
3.7037897716048818
3.495968796111797
3.4953343736000924
7.458012801142215
1.626694135995329
-8.214352206565225
8.252066689315244
6.791766901002584
-1.4502483323264643
-1.8422331226145392
-3.541624686877092
6.684126044920366
-6.59656949618832
4.175414276023247
-2.1979195912984886
-3.7598510202729476
-0.44601255055308026
-6.207392095728482
3.2824847303769844
7.426681954343229
5.573435095672162
-4.348954937695928
-3.417814536776674
-9.953897176747116
-0.5776533790860421
-7.929547433832525
-1.4071398615899269
-3.362380065186307
-8.546662749425595
-7.754907211713031
-0.9232463579098755
-0.7176981132743148
-0.8391516748167647
0.7765913767314525
1.027338718809857
-7.100217153534934
1.486903538893364
-9.021657855648872
2.05594639262361
-4.250415537697832
-4.132631493093835
9.395127546957367
3.3849270258722957
-3.1134499185988296
3.37217236332455
-3.483484908920829
-3.270292981233131
3.4780889780906366
6.706906126167503
-6.29756875133612
-4.289231059978129
4.157135527203678
-4.172165634816025
-1.283839868151833
1.208061228238333
6.239961099448608
-9.942698824478352
-0.7852745805082959
-0.7307626868670519
1.1453926076668335
1.0551935058169855
0.9421123415825275
-6.702197922691501
-8.023520012279327
-3.908747221209843
4.240453199232416
4.135601677556611
0.9927744194000615
-0.9269552764707423
-0.7565566649560365
-8.610730645879233
1.0016897801479514
4.409700577648515
-4.183038381048055
9.35214077845932
-3.3625780403266226
-0.44023179191917905
0.20500701431679366
-0.9807985102696061
4.025686853543167
0.24148055754790226
8.35290765172898
-0.46043268568629386
6.4956774665314025
6.077801927744824
4.548291405925569
5.499134778018066
2.5663166292123423
-7.424010953299336
-1.28862750908927
2.169358015072802
0.8555712359085355
1.91991099197202
-2.3150956220537795
-4.6300138858290865
-10.004326426394776
-0.6341149582087026
0.7356084452898383
3.726985309617794
0.7406765121088013
-0.5680410735094544
-0.5090711067724957
5.486282988696501
4.904137301156858
-4.106625135947415
-4.2570638928187305
4.058758241928291