# vtk DataFile Version 1.0
2D Simulation C++
ASCII
DATASET UNSTRUCTURED_GRID
FIELD FieldData 1
NODES 1 2 int
715 1308

POINTS 715 double
0.0 0.0 0.0
5.0 0.0 0.0
5.0 1.0 0.0
0.0 1.0 0.0
0.10000000149011612 1.0 0.0
0.20000000298023224 1.0 0.0
0.30000001192092896 1.0 0.0
0.4000000059604645 1.0 0.0
0.5 1.0 0.0
0.6000000238418579 1.0 0.0
0.699999988079071 1.0 0.0
0.800000011920929 1.0 0.0
0.8999999761581421 1.0 0.0
1.0 1.0 0.0
1.100000023841858 1.0 0.0
1.2000000476837158 1.0 0.0
1.2999999523162842 1.0 0.0
1.399999976158142 1.0 0.0
1.5 1.0 0.0
1.600000023841858 1.0 0.0
1.7000000476837158 1.0 0.0
1.7999999523162842 1.0 0.0
1.899999976158142 1.0 0.0
2.0 1.0 0.0
2.0999999046325684 1.0 0.0
2.200000047683716 1.0 0.0
2.299999952316284 1.0 0.0
2.4000000953674316 1.0 0.0
2.5 1.0 0.0
2.5999999046325684 1.0 0.0
2.700000047683716 1.0 0.0
2.799999952316284 1.0 0.0
2.9000000953674316 1.0 0.0
3.0 1.0 0.0
3.0999999046325684 1.0 0.0
3.200000047683716 1.0 0.0
3.299999952316284 1.0 0.0
3.4000000953674316 1.0 0.0
3.5 1.0 0.0
3.5999999046325684 1.0 0.0
3.700000047683716 1.0 0.0
3.799999952316284 1.0 0.0
3.9000000953674316 1.0 0.0
4.0 1.0 0.0
4.099999904632568 1.0 0.0
4.199999809265137 1.0 0.0
4.300000190734863 1.0 0.0
4.400000095367432 1.0 0.0
4.5 1.0 0.0
4.599999904632568 1.0 0.0
4.699999809265137 1.0 0.0
4.800000190734863 1.0 0.0
4.900000095367432 1.0 0.0
5.0 0.8999999761581421 0.0
5.0 0.800000011920929 0.0
5.0 0.699999988079071 0.0
5.0 0.6000000238418579 0.0
5.0 0.5 0.0
5.0 0.4000000059604645 0.0
5.0 0.30000001192092896 0.0
5.0 0.20000000298023224 0.0
5.0 0.10000000149011612 0.0
4.900000095367432 0.0 0.0
4.800000190734863 0.0 0.0
4.699999809265137 0.0 0.0
4.599999904632568 0.0 0.0
4.5 0.0 0.0
4.400000095367432 0.0 0.0
4.300000190734863 0.0 0.0
4.199999809265137 0.0 0.0
4.099999904632568 0.0 0.0
4.0 0.0 0.0
3.9000000953674316 0.0 0.0
3.799999952316284 0.0 0.0
3.700000047683716 0.0 0.0
3.5999999046325684 0.0 0.0
3.5 0.0 0.0
3.4000000953674316 0.0 0.0
3.299999952316284 0.0 0.0
3.200000047683716 0.0 0.0
3.0999999046325684 0.0 0.0
3.0 0.0 0.0
2.9000000953674316 0.0 0.0
2.799999952316284 0.0 0.0
2.700000047683716 0.0 0.0
2.5999999046325684 0.0 0.0
2.5 0.0 0.0
2.4000000953674316 0.0 0.0
2.299999952316284 0.0 0.0
2.200000047683716 0.0 0.0
2.0999999046325684 0.0 0.0
2.0 0.0 0.0
1.899999976158142 0.0 0.0
1.7999999523162842 0.0 0.0
1.7000000476837158 0.0 0.0
1.600000023841858 0.0 0.0
1.5 0.0 0.0
1.399999976158142 0.0 0.0
1.2999999523162842 0.0 0.0
1.2000000476837158 0.0 0.0
1.100000023841858 0.0 0.0
1.0 0.0 0.0
0.8999999761581421 0.0 0.0
0.800000011920929 0.0 0.0
0.699999988079071 0.0 0.0
0.6000000238418579 0.0 0.0
0.5 0.0 0.0
0.4000000059604645 0.0 0.0
0.30000001192092896 0.0 0.0
0.20000000298023224 0.0 0.0
0.10000000149011612 0.0 0.0
0.0 0.10000000149011612 0.0
0.0 0.20000000298023224 0.0
0.0 0.30000001192092896 0.0
0.0 0.4000000059604645 0.0
0.0 0.5 0.0
0.0 0.6000000238418579 0.0
0.0 0.699999988079071 0.0
0.0 0.800000011920929 0.0
0.0 0.8999999761581421 0.0
0.7496038675308228 0.5164291858673096 0.0
1.3451675176620483 0.5190238952636719 0.0
1.9462687969207764 0.4963642954826355 0.0
4.456614971160889 0.5060901641845703 0.0
3.864220380783081 0.4866538345813751 0.0
3.249823808670044 0.482722669839859 0.0
2.6500000953674316 0.5 0.0
0.3810288906097412 0.399004191160202 0.0
2.308779239654541 0.3797946870326996 0.0
1.0499999523162842 0.6625000238418579 0.0
1.644740104675293 0.6598879098892212 0.0
4.150000095367432 0.3375000059604645 0.0
3.555316209793091 0.3343118131160736 0.0
2.9446933269500732 0.3401789665222168 0.0
1.6342840194702148 0.3290160894393921 0.0
1.0591840744018555 0.33908534049987793 0.0
2.9654481410980225 0.6753292679786682 0.0
3.5534629821777344 0.6835107207298279 0.0
4.153462886810303 0.6835107207298279 0.0
2.2139804363250732 0.6805098056793213 0.0
0.4914395809173584 0.6739721894264221 0.0
4.691666603088379 0.6916666626930237 0.0
4.691666603088379 0.3083333373069763 0.0
2.4872219562530518 0.7236665487289429 0.0
0.6240421533584595 0.2677222192287445 0.0
2.0697431564331055 0.2657754421234131 0.0
2.5389034748077393 0.26082900166511536 0.0
0.8147311806678772 0.7450684309005737 0.0
1.2897310256958008 0.743314266204834 0.0
1.8853894472122192 0.7450258731842041 0.0
4.382374286651611 0.23655959963798523 0.0
3.910269021987915 0.25668570399284363 0.0
3.1838724613189697 0.25397706031799316 0.0
1.398239254951477 0.2614254057407379 0.0
3.201760768890381 0.7385746240615845 0.0
3.8017609119415283 0.7385746240615845 0.0
4.39177942276001 0.7466779351234436 0.0
0.25301694869995117 0.7458874583244324 0.0
2.7258167266845703 0.7600342631340027 0.0
0.84163498878479 0.2263137847185135 0.0
0.22429518401622772 0.22429518401622772 0.0
2.7605957984924316 0.22504857182502747 0.0
1.8330284357070923 0.2150011658668518 0.0
0.2192869633436203 0.5323538780212402 0.0
4.7908525466918945 0.5038931369781494 0.0
2.466000556945801 0.5376454591751099 0.0
3.7061264514923096 0.17723728716373444 0.0
3.3929696083068848 0.20266839861869812 0.0
1.4905184507369995 0.7937026619911194 0.0
1.2104878425598145 0.20361483097076416 0.0
3.9895122051239014 0.7963851690292358 0.0
3.389512300491333 0.7963851690292358 0.0
0.5652223825454712 0.5070380568504333 0.0
0.44509074091911316 0.19716571271419525 0.0
2.1318352222442627 0.5042122602462769 0.0
1.548349142074585 0.4954715371131897 0.0
3.050636053085327 0.5004673004150391 0.0
0.9511125087738037 0.498258113861084 0.0
3.651650905609131 0.5045284628868103 0.0
4.248488903045654 0.4980509281158447 0.0
1.1537858247756958 0.49593159556388855 0.0
4.050199031829834 0.49993085861206055 0.0
3.464722156524658 0.509624183177948 0.0
1.749653697013855 0.5001751780509949 0.0
2.851828098297119 0.5057260394096375 0.0
2.359710216522217 0.1888567954301834 0.0
2.0499017238616943 0.8199846148490906 0.0
0.6430503129959106 0.8181284070014954 0.0
4.560274600982666 0.1724673956632614 0.0
4.55863094329834 0.8299665451049805 0.0
2.321284055709839 0.8242537379264832 0.0
4.815218925476074 0.8345447778701782 0.0
4.837246894836426 0.16590170562267303 0.0
0.9682294130325317 0.8331464529037476 0.0
1.730908751487732 0.827606201171875 0.0
4.220076560974121 0.17516615986824036 0.0
3.02066969871521 0.18326662480831146 0.0
1.5634372234344482 0.17044226825237274 0.0
3.035303831100464 0.8294908404350281 0.0
3.627507209777832 0.8360387086868286 0.0
4.2312469482421875 0.8315803408622742 0.0
4.618130683898926 0.5361976027488708 0.0
0.40311703085899353 0.8369210362434387 0.0
1.1473191976547241 0.8458209037780762 0.0
4.052680969238281 0.15417908132076263 0.0
2.020958423614502 0.6394158005714417 0.0
0.662188708782196 0.6447370648384094 0.0
4.5115838050842285 0.3538685142993927 0.0
1.0221220254898071 0.15309639275074005 0.0
0.3837882876396179 0.5515117049217224 0.0
3.548090934753418 0.15800617635250092 0.0
1.4348299503326416 0.6465393304824829 0.0
3.765170097351074 0.3534606993198395 0.0
3.3348300457000732 0.3534606993198395 0.0
1.2546738386154175 0.36384353041648865 0.0
3.945326089859009 0.636156439781189 0.0
3.3412928581237793 0.637225866317749 0.0
2.1904795169830322 0.17066854238510132 0.0
0.16392111778259277 0.38331863284111023 0.0
2.87723445892334 0.8265392184257507 0.0
4.8459792137146 0.6499902606010437 0.0
4.845625400543213 0.34837812185287476 0.0
2.771622896194458 0.38129922747612 0.0
4.5222978591918945 0.6578375697135925 0.0
2.604464530944824 0.8240283727645874 0.0
1.8544400930404663 0.3751189708709717 0.0
0.8566747903823853 0.38255012035369873 0.0
2.2932615280151367 0.5369129776954651 0.0
2.620572805404663 0.6496497392654419 0.0
0.7172287106513977 0.1490369737148285 0.0
0.1410960853099823 0.8303417563438416 0.0
1.7142322063446045 0.142862930893898 0.0
2.6314175128936768 0.14492936432361603 0.0
1.9832650423049927 0.1408119648694992 0.0
2.445650577545166 0.370038241147995 0.0
2.885042667388916 0.1455758661031723 0.0
0.13937503099441528 0.6546638011932373 0.0
0.9110832810401917 0.6349053978919983 0.0
3.088575839996338 0.3613528311252594 0.0
4.296638011932373 0.3563385307788849 0.0
1.1930090188980103 0.6355591416358948 0.0
1.788455843925476 0.6387236714363098 0.0
4.006990909576416 0.3644408583641052 0.0
1.4459187984466553 0.39242905378341675 0.0
4.354081153869629 0.6075709462165833 0.0
3.7540812492370605 0.6075709462165833 0.0
3.1591691970825195 0.6018876433372498 0.0
2.7615907192230225 0.6205627918243408 0.0
2.36276912689209 0.6735464930534363 0.0
1.3681535720825195 0.8630191683769226 0.0
3.8318464756011963 0.1369808316230774 0.0
3.275517463684082 0.10712132602930069 0.0
0.5630941987037659 0.12814241647720337 0.0
1.3237862586975098 0.10638008266687393 0.0
3.2733232975006104 0.8705052733421326 0.0
3.8733232021331787 0.8705052733421326 0.0
2.0396511554718018 0.38928428292274475 0.0
2.2168734073638916 0.8508136868476868 0.0
0.5163488388061523 0.3409615159034729 0.0
0.6547463536262512 0.3955095112323761 0.0
1.9480526447296143 0.8710126876831055 0.0
4.689375877380371 0.13700176775455475 0.0
4.698264122009277 0.8675068616867065 0.0
0.7578787803649902 0.8698469996452332 0.0
2.479548454284668 0.13692785799503326 0.0
2.4562506675720215 0.8735422492027283 0.0
2.171211004257202 0.3573116958141327 0.0
3.5117530822753906 0.853193998336792 0.0
4.107914924621582 0.8658969402313232 0.0
2.640726327896118 0.354434996843338 0.0
4.346996307373047 0.1279495507478714 0.0
0.3128283619880676 0.11246757209300995 0.0
0.136248379945755 0.12152919173240662 0.0
4.453908443450928 0.8629162907600403 0.0
1.6064813137054443 0.8679171800613403 0.0
0.3380795121192932 0.6626779437065125 0.0
0.5102446675300598 0.875635027885437 0.0
0.7425088882446289 0.2989330589771271 0.0
3.1349449157714844 0.10448489338159561 0.0
1.3287748098373413 0.6181886196136475 0.0
3.871795415878296 0.38215625286102295 0.0
3.229135036468506 0.3810797333717346 0.0
0.28971707820892334 0.8759857416152954 0.0
0.9214505553245544 0.11992674320936203 0.0
1.9219478368759155 0.6237660050392151 0.0
1.530794620513916 0.29603153467178345 0.0
3.072223663330078 0.7044162750244141 0.0
3.6722235679626465 0.7044162750244141 0.0
[...]
POINT_DATA 715
SCALARS Psi double
LOOKUP_TABLE default
0.0
0.0
1.0
1.0
1.0
1.0
1.0
1.0
1.0
1.0
1.0
1.0
1.0
1.0
1.0
1.0
1.0
1.0
1.0
1.0
1.0
1.0
1.0
1.0
1.0
1.0
1.0
1.0
1.0
1.0
1.0
1.0
1.0
1.0
1.0
1.0
1.0
1.0
1.0
1.0
1.0
1.0
1.0
1.0
1.0
1.0
1.0
1.0
1.0
1.0
1.0
1.0
1.0
0.9190387287440644
0.8648411433529246
0.7634065339825771
0.62770285007419
0.47161100343723245
0.3142620003381549
0.17612852022666609
0.07274171711106632
0.019224127644825294
0.0
0.0
0.0
0.0
0.0
0.0
0.0
0.0
0.0
0.0
0.0
0.0
0.0
0.0
0.0
0.0
0.0
0.0
0.0
0.0
0.0
0.0
0.0
0.0
0.0
0.0
0.0
0.0
0.0
0.0
0.0
0.0
0.0
0.0
0.0
0.0
0.0
0.0
0.0
0.0
0.0
0.0
-0.0
0.0
0.0
0.0
0.0
0.0
0.0
0.02734870657583914
0.10769412984380018
0.20922924130743933
0.3108721829737165
0.4124624780958352
0.5108169847358478
0.6026357655788055
0.6784485105683815
0.6416395425880265
0.5299756165589629
0.5433037096555661
0.5008247587972616
0.49393546198817806
0.4685318065939056
0.4710076866087867
0.5113258738387574
0.32039555536185
0.30970716170413815
0.774595030259331
0.7649320614477273
0.22794905169917637
0.22328116094912567
0.24690980912947297
0.22803436817617748
0.2548442823593389
0.7925531506061221
0.7894794437440477
0.7868232999786945
0.7971263497448706
0.7598506884353285
0.7847260895768821
0.17847798384130834
0.8541252603144223
0.15681279137411744
0.1454257832183283
0.14094726926475099
0.8815579230740023
0.8772949061538726
0.8751771683394286
0.09213106950089418
0.12248084868487594
0.12339518869194468
0.13570403551809837
0.8686651139580978
0.8624727845285906
0.8679087286939982
0.7934652415239407
0.9002169778070375
0.11056206064030458
0.11127086559602671
0.09684237135102924
0.08284788742001378
0.46456427270257256
0.48037799100523276
0.5738511337006538
0.04001519151274141
0.06268240935251725
0.9295012746737674
0.06980199270420105
0.9254844030790779
0.9261701701906762
0.49540926011935826
0.07117266517000545
0.5154303745402959
0.500973305119825
0.5073814372757345
0.5097617984322123
0.5001517330057764
0.48442270157838674
0.5068107828742937
0.4897768470653026
0.5111195708535062
0.5072734614499336
0.5203710641600664
0.05769165410743799
0.9532945518348384
0.9590346916267822
0.0372509285615814
0.9531903057212786
0.9592508808503629
0.9418247718861759
0.028915161402387382
0.9639051019085793
0.9564608539115063
0.0404713106913567
0.052409302027631825
0.04091732954532506
0.9652969191709424
0.9611849018596875
0.9579630269145143
0.5402064707302128
0.9786717231095667
0.9709297689238526
0.029803374288457134
0.7337068405070959
0.734390021639033
0.24551241008413174
0.03678623808100533
0.529272036381568
0.028983861378322304
0.7480495167932433
0.25118602445069554
0.2562525100447146
0.28712714165527653
0.7155540434180508
0.7230529524194207
0.04447604924037013
0.29479520569634876
0.9644689511408495
0.7134729887416151
0.22982169824124804
0.31360625835731387
0.7419800106127482
0.9598669909823715
0.29988861068016803
0.3222397795919181
0.5711441813734154
0.7548945941676736
0.037254792044350934
0.822593510146781
0.02562424316683903
0.02740097129933512
0.025124490223866754
0.2956398131358117
0.026357187605730643
0.5837961295249201
0.7315732503823525
0.27626318238169423
0.25314434485207593
0.733512705725173
0.7317751522471033
0.26952424779120376
0.3298062186148825
0.6657270206187534
0.6711193767313371
0.6731904882525711
0.7098997844484186
0.786285027443578
0.9792017721485999
0.01761270028744829
0.0017939987716751183
0.02126297076950958
0.0010701303841490655
0.981396088925905
0.9822905831867776
0.32413757023200623
0.9759823089239801
0.2496134758905547
0.3344372401315743
0.9852898101724678
0.01984705201840781
0.9786701139948846
0.9849517553186744
0.023291254533691297
0.9841457471224984
0.27425256012457744
0.9696475155896084
0.9801734177912174
0.27226600866313316
0.005732381120014415
0.006012499035871142
0.022589959017807297
0.9772724376000881
0.9811779582921973
0.6942172761618263
0.9922328939326978
0.19993795762741873
0.0030024829299442717
0.7051872031133906
0.296989422751843
0.3033061356687325
1.0187586502044739
0.02182952419806771
0.708429695671429
0.1817510217378063
0.8294691036184927
0.8171580329059073
0.8141615589906236
1.0058443344501502
0.6890950204558401
0.004084648918989671
0.9947543813382982
0.9944084084998067
0.15505900423149363
0.32566818255677826
0.18348038257967275
0.9957960114346535
0.0036210846283870088
0.868782705232914
0.2927665831937251
0.12747646749144403
0.34094025636920655
0.011577926011033829
0.16199598919022312
0.9905727092091439
0.9901103713456681
0.1266864677619568
0.19089347922302774
-0.0015533498310914837
0.443111367958989
-0.0035574265812403356
0.4047636658224824
0.19409555154407032
-0.003781410650722871
0.0006985175388609683
0.4098283929289413
0.4292543520172101
0.41383405375853627
0.5923890459712652
0.5902584617486114
0.003095292137284546
0.5523813986676908
0.0015973967490713421
0.6954520327273896
0.13007769646853234
0.6021217823052016
1.0012082018723663
0.8040717800422453
0.1732779995319164
0.8023847831910528
0.18243925372447956
0.20061492845871073
0.8159899894839294
0.9983411454721832
0.0015534056422913671
0.13155350432400909
0.8659529416241545
0.1336416750585394
0.3304288548240995
0.6180477348333554
0.8268822922080313
0.10728547711333102
0.40847874428681047
0.41664011016092145
0.6118161656459394
0.5970673081554317
0.5912245172823257
0.020337789983192828
0.6538745034962972
0.13762937477494788
0.8652744748236085
0.8610125994924356
0.5955824117528828
0.40766179350087545
0.4240357859482407
0.003669559886235842
0.5888111729963375
0.8685320901542894
0.13413359547442283
1.0064461373565416
0.19651912096392307
0.5742473296464582
0.6578906118264379
0.4065643063467648
0.861774209772787
0.5814200868868643
0.9993330109053559
0.4526308321583192
0.9882955575076451
0.9874892657524809
0.8955284870750934
0.8672995631660586
0.9583308331694675
0.006167862558760274
0.4239928303669022
0.7086637881134696
0.5764964195421378
0.6818270173691999
0.36850248298162486
0.10501022639545039
-0.0013914460113524279
0.4399196733502746
0.2114384411552579
0.8395101890284894
0.5643131899226721
0.44035378218459026
0.4465323576563254
0.8513042366208605
0.8765319672494102
0.13822057625772322
0.12306263009295218
0.8677462247090804
0.411242070952511
0.9991202858711957
0.14236398292001018
0.904389666923007
0.9054578343763352
0.35958436786383635
0.9174033926201516
1.004056783071568
0.114619432143337
0.14377119250711728
0.6754742679654656
0.3243666310239308
0.6765662557428562
0.6892208470443949
0.08483169792478516
0.6687317044368081
0.3342918803355363
0.33429601969204437
0.006507801825735071
0.4755001938634887
0.2626791938000857
0.7367528453742244
0.7646187967308601
0.34001844335599946
0.8772039426845603
0.6654908160919358
0.6609094541397414
0.6347220547773563
0.00766644765650279
0.007462910026445817
0.1320289316054365
0.8225407355602893
-0.0030930979181445365
0.9159946430745242
0.9156569808279061
0.8470289210001651
-0.003439677741620259
-0.0028511596665453777
0.19013232789834847
0.3422043705149745
0.00010949425346363094
1.0004460419821397
0.3369183781552128
0.8863535201264233
1.0002209193657183
0.8834028813222895
0.120080327732774
1.00585457248794
-0.0016024360289931035
0.1039223463776237
0.9954494949583625
-0.0005152309793779085
0.31756210675206903
0.0005981691551861689
0.6902908810004429
0.003688378646311307
1.0020573142963694
1.0044932029984388
0.11181301030407426
0.4931436563925742
0.15189120493972055
0.9978387245915877
0.8862403816875821
0.9988935577130873
0.32978986352068174
0.9993637096268766
1.0028028817269286
0.13330533092590363
0.0880427166287046
6.207607356020114e-05
0.28131644493725927
0.649135132162953
0.5856263114051738
0.4122344005070782
0.5615957638080523
1.0040260882826695
0.2555389098590847
0.5708057539828666
0.9999403833652137
0.00030544368760074405
-0.0013711504211857942
0.19358393613997854
0.40714740723734916
0.5796587121233796
-0.0018696974190151492
0.9203682523428385
1.0052909693519902
0.8847890774161433
0.09095605187793446
0.914150551155339
0.9073607723932104
0.6351269649748351
0.07839493121762157
0.8951187888421048
-0.0018894760336112923
0.2815319935488884
0.0026006433683146836
0.9330258228339829
0.06718846500675724
-0.0015125428176485177
0.5875077317372228
0.5399591967038117
1.0042876406401335
1.0154489178285122
1.0015405190793656
0.001285285122036926
0.43376074063329056
0.6800131585517301
0.6877132652391617
0.6807453516954689
0.3200328219573219
0.3160081287121749
0.33169195246813843
0.9439237472931944
1.0353808380102136
0.9973931722894472
0.994683849018279
0.9634470111362556
0.6847497186227993
0.757261666429162
-0.002067584956982917
0.06493675522454004
0.7911132769069353
0.7052326455411586
0.23274733374454107
0.8726685838995907
0.08570532455305546
0.07602935661573246
0.7183580945985985
0.618889844733382
0.4343826483000835
0.9981439460328153
1.0012847883286484
0.7725553378628273
0.10032353118259821
0.9308106131664966
0.21412169731291716
0.9523993597562619
0.05405033550855751
1.0003847761900193
0.0021546040727072227
0.36787812915964485
0.6122598821731425
0.363531007600166
0.83327290361775
0.04196615764257566
0.5916317696172563
0.37552475608138197
0.837993596694993
-0.0012068995627052925
-0.00360846428968888
0.18944808379712127
0.17573359295119678
0.05638355673991344
0.10503579895482894
0.9456869406071642
0.8416751376208695
0.1601288788025564
0.8015688025499451
0.2046095850221194
0.906844145251066
0.9021491144388407
0.901830276696147
-0.004724375348335873
0.9407940945173433
0.3586932768391438
0.21802908564785278
1.0005487809990068
0.16979373232048783
0.5582922068713493
0.7129532367730498
0.6095402420945321
0.6410378202573502
0.04326279055423062
0.952005827275441
0.9508972574513201
0.05632071731764111
0.696289978683914
-0.006196863579479836
1.0059727140931884
1.0037757906931932
0.03738754742292244
0.042733458842062005
0.8942483632536994
0.2518859187641731
0.9476147291248594
0.451282205893065
0.8597943379269741
-0.00039844435294718436
0.6440576038855245
0.3547210951624038
0.36622995517001217
1.0011558226708452
-0.0021329676101343354
0.5573386450862414
-0.007554162973883274
0.41326304075796766
0.06738676896440728
-0.0011400185804716335
0.23588870675270016
0.626412145383863
0.7203103629657733
0.7831170208118305
0.9500325760614556
0.04785339206362052
0.24284988937879703
0.18528128832802726
0.7697380394702021
1.004571227257703
0.23308583763571755
0.06913952881568049
0.18597133364767643
0.0540956170966157
0.9299538973253875
0.046819327644397286
0.20991928463358336
0.7851718997475972
0.7894058446359578
0.7997047765150407
0.4075753507932011
1.0058851903623587
0.3707602415699308
0.9172962543378892
-0.0012783250873540201
0.05117777596907073
0.040370726130032335
0.5981118662903392
0.07075965407306721
0.0020992899961566175
0.05988002266992484
0.08157771599820415
0.41544693861417603
0.5610854985693816
0.030375409848845104
0.19617459756784017
-0.0018222253502247132
1.00012571084405
0.9188854400861715
0.4338265262524795
0.5689853136866971
0.626487592053264
0.9390461878458313
0.051388503817434476
0.05038789700542544
0.9982431497124221
0.03056356529981469
0.5060790265261318
0.32756537600976354
0.11867548252627493
-0.0009108398551715612
0.7917999368307819
0.949440162709822
0.14485818381314336
0.12605645425544204
0.8536975642360587
1.0017456010509191
0.04474888345563296
0.9431089048058741
0.9424513466636931
0.4450134762821227
0.4428453512698156
1.0008541423454174
0.2141146985115737
0.33467545633986195
0.3749407598004965
0.00027120139222672386
0.967354187338162
0.9682954361701327
0.24455072309010872
0.5956633175041756
0.8308230574982658
0.8336131815248036
0.18900971002140837
0.8307963796369527
0.23426931246586757
0.8807503451473876
0.8795010995652895
0.6195688141574465
0.8940720160040242
0.6188695379031467
0.051594493395833996
0.9505683406691025
0.39387579013903834
0.6233035801135678
0.37625929776325256
-0.007360384749720193
0.31267866410917133
0.05682761991996736
-0.0005518867572365375
0.5666535193591611
0.11582828236456243
0.22024034042472687
0.08609407248974013
0.800231977168546
0.8743020635615099
0.9759546936115912
0.5852249839410699
0.0032557274548957104
0.40528765695314356
0.07766957596386768
0.9992447714335505
1.0002545034330788
-0.0010172148590270468
0.05792884047357785
0.9454012647041925
0.00038350967136001655
-0.004365301273793849
0.23404253624512472
0.7680066134078224
0.43685850266320925
1.0029095233860004
0.22552991971078942
0.8188135008461974
0.19859981001305632
0.8087175626534577
0.19127482798265313
0.9787215985163001
0.0016580263910170032
0.4114455237320387
1.000889068203118
0.9585386869493022
0.04384187254238747

SCALARS Omega double
LOOKUP_TABLE default
-7.67645852691777
-1.193079819128202
8.557861431012812
15.920344342315676
36.511319238061944
-6.477622287206036
2.4231958744711486
-4.466114657166702
-0.428321061521591
1.923264194336265
0.04792598733935093
-0.6374887780818111
0.48532756193562265
1.1443102528097056
0.22388354974525437
0.8257358333692593
0.525689879540693
0.7915645948843352
1.5476258362392705
-0.10256502310781378
1.4103156776801131
1.2471072086947708
-0.45132143894753907
0.4918493162893052
1.0714916468296478
1.0462451134104722
0.7532664865052586
0.24056210785009116
0.45642546967506065
1.4192930168623268
1.1069770966303003
0.1507259083201413
1.3310541512128409
0.8534191657886011
0.4167049072177226
1.1294409545529196
0.7550486571655087
0.38035044864844
1.328927146146697
0.6820055470618777
1.3993874997148106
0.7073408559691571
0.43089526553957486
0.3569355394424102
0.9553280753482903
0.7352939382225553
2.1670967984729494
0.46952785516766654
-0.4903149495688181
2.1967619594238137
0.8898666532347631
1.8957701256275388
9.605474053248594
-7.762525007042787
0.5250682270662518
2.7543970963874784
1.5748473151015816
-0.09211478384476994
-1.0495377934933314
-2.5375493315504163
-3.2153025431781352
-1.6249643766792876
-0.27094249081823185
-0.6840366883452925
-1.0815859439485815
-0.11718406238778774
-0.7231141160271792
-0.3768591162061827
-1.0727752364381362
-0.8199036993673156
-0.30591073237883953
-0.7160028268181332
-0.45522840881772453
0.11401455765156521
-1.7760244592135856
-0.6438774860465366
0.3985470232454511
-1.5047838936227949
-0.5993617646752992
-0.2883299046907136
-1.129341618152652
-0.8168440045535955
-0.4290034166280699
-1.1263945878419697
-0.906857522252211
-1.4527163549254178
-0.14906832039440232
-0.5555842052273292
-0.996474909883752
-1.1141669672797763
-0.7500446922571085
0.7106242225133993
-1.4183375901955781
-1.242560325778556
0.2236858936127147
-0.856948851710067
-1.1183185728085778
-0.1513012173168835
-0.5508060009555945
-1.523697470696403
-1.5296741507249827
-0.38972544751450805
-1.906044465002628
-0.48632371914337985
-2.071955459914241
-0.4991797252212857
-0.14066889689489656
-2.0695106629066626
-1.9111007099111863
-0.8190191226153573
0.7510887783079664
-4.592735536502664
2.6458024579102775
0.312026525889481
-0.025434906690080958
-0.8569648742735718
1.6497237203289654
-5.889134770373435
-2.3400942784876277
-42.60857685430662
-0.514264424368066
0.5069377087608219
0.07936478260583812
-0.09146778982972424
-0.30460898061553077
-0.24124511183478264
0.17257061398859702
-0.37543810125248256
-1.816996099762699
3.1223839173483814
2.7367844137861357
-2.7976040375991573
-2.8401076533524057
-2.4993240335271345
-2.7499040761468008
-2.0428662074015924
3.031089090012337
2.9913905771221674
2.9253185892761775
3.0152960747296627
2.3149190019944936
2.990236491164425
-3.361945565474429
3.904728402141261
-2.5865007298251292
-4.032968105197816
-3.999207574325656
5.2152057193929675
4.3442328436249245
4.077004273203194
-4.741820168801521
-4.33712760814104
-4.255206688671387
-4.070329196755533
4.221817308703708
4.016097576439345
4.2502776508836995
1.967921542659846
4.5962222126567225
-3.969352131231394
-1.7027522682215441
-4.675872787690597
-5.028055644414832
-1.4212076259609283
-0.19198444717112081
0.7416053324923727
-6.2988105988766785
-5.455182235392903
5.056433483377105
-5.158335652655676
5.259109674209993
5.057160732457752
-1.2639517536602376
-4.898797582127413
0.19286278692759004
0.1315468518562356
0.11599531404950689
-0.1733022673023525
-0.0002751416987135891
-0.18092833547173778
0.06267498980360113
-0.12089608979246974
0.11211182790028741
0.17396428965270605
0.25153866268560354
-5.646489303191868
5.419400019739964
7.334255198660289
-5.8219528143169015
5.90439341581275
5.902656293153482
6.154464160719935
-5.4514902379367145
5.6527548850383225
5.30804052866792
-5.613817626870661
-5.506277267495649
-6.413381087259581
6.542662414647564
5.706105780714387
5.814875511774206
0.3236506855498272
13.254022303503051
5.627263073753045
-5.5905454610344885
2.3048689323959937
2.2642925383047348
-2.4892643736614724
-5.441306491296596
-2.34020247098188
-5.943636427972659
2.639125674188743
-2.5053749540932153
-2.4396639105707782
-1.8615736438116053
2.064591498489782
2.2331603734261716
-5.615355920775558
0.08647034414616023
6.080958421324106
1.8474781409338645
-2.30799072900247
-1.7398410726214408
2.36169187939298
5.636877534574321
-1.9027192243871136
-1.269610721976538
0.6962002042921314
2.5887922360688664
-6.10784763874865
-1.8672362251286183
-6.198739188431839
-6.192800741382283
-6.35794348525954
-1.9508024019001722
-6.254770174893055
-4.517503380148334
2.4831428138833154
-2.1962460961959227
-2.464996895040668
2.5481683483912185
2.335259880650819
-2.3094936164682975
-1.5057700550004458
1.536470021683273
1.6459151612341458
1.6972351445926528
2.105088508011207
2.9798131864430077
5.764956658918313
-6.5204785269961745
-7.538003799889327
-6.639592587598963
-8.367028372294332
6.340507869081577
6.933958787246029
-1.6425557032519758
6.714264124418267
-0.9133142567954614
-1.0069812759647454
6.662828141763712
-5.4393232076618085
8.045602414424483
6.009687516419965
-6.228912255630492
5.616581540270842
-2.206449336127233
5.685551577129508
7.104140130963577
-2.187874085655936
-8.439724392533725
-10.849230302740398
-8.805137642960823
6.64614744031944
5.84090081762208
-1.0364687100099466
7.104671202983605
-2.1690827217316806
-7.911055981318481
2.2006444972233927
-2.002823115632804
-1.930146360136864
23.704554360038397
-6.213787422632744
2.0771180597565273
-3.4033333758258393
3.5803136206344015
3.3156835500900894
3.2936500881725905
7.505276934142514
1.6231439692360596
-8.273533044713986
8.472530053158815
6.906556505981795
-1.450022581491306
-1.6359509558858618
-3.3724696497297657
6.70416383774342
-6.692837104407695
4.090089748352212
-2.015876202253632
-3.762084850739989
-0.44554383476361653
-6.3546572439808005
3.2824563538283913
7.5671381504535296
5.575823664346608
-4.206586643902712
-3.286555086326579
-9.960903333008662
-0.4578803456575505
-8.211305285674015
-1.407032034736014
-3.148529178192495
-8.6240814930859
-7.848064840732844
-0.8653696360459445
-0.5960174774062201
-0.8108016097592827
0.7709209416925994
0.9615744292155359
-7.300412672188103
1.3936279072413076
-9.20057797245976
1.9651690628342193
-4.103530463124935
-4.1320775458275865
9.658842216470926
3.1853434977961017
-3.107136350419754
3.1931584786286127
-3.3665980478284503
-3.147880008443515
3.370973058788265
6.701344168695711
-6.4285663320647854
-4.182254131008771
4.117576834328865
-4.083952749194257
-1.2846956621222463
1.061020736769125
5.858703675854082
-9.512875376446987
-0.7398831870885854
-0.7307940564997907
1.0942261416754977
0.9287225035873224
0.8051128330502382
-6.701690446245497
-8.022937911848897
-3.892058110186045
4.115995109078097
3.9949956678295955
0.9808845816400246
-0.8822822244350448
-0.6701312481279819
-8.923910947841657
0.9042194124921572
4.406785556841967
-4.045792525840508
9.442078262560026
-3.136301144086943
-0.4418145117078905
0.20303453665764887
-0.8753613287496189
3.911049058770337
0.23800861916705687
8.453800663531531
-0.38142753080084957
6.6905002978412735
6.219390609659577
4.494291081184314
5.497181200426036
2.8208324711834085
-7.723207918938943
-1.2875949443853314
2.058120722110913
0.7589087001380158
1.7546377942189038
-2.008313373826067
-4.556477522759595
-10.003766698744133
-0.5893466186366384
0.7358020038049361
3.589932268678897
0.7180339047757063
-0.5670127485989827
-0.48075853564433785
5.484099961086515
4.904790592903626
-4.008315344404182