# vtk DataFile Version 1.0
2D Simulation C++
ASCII
DATASET UNSTRUCTURED_GRID
FIELD FieldData 1
NODES 1 2 int
715 1308

POINTS 715 double
0.0 0.0 0.0
5.0 0.0 0.0
5.0 1.0 0.0
0.0 1.0 0.0
0.10000000149011612 1.0 0.0
0.20000000298023224 1.0 0.0
0.30000001192092896 1.0 0.0
0.4000000059604645 1.0 0.0
0.5 1.0 0.0
0.6000000238418579 1.0 0.0
0.699999988079071 1.0 0.0
0.800000011920929 1.0 0.0
0.8999999761581421 1.0 0.0
1.0 1.0 0.0
1.100000023841858 1.0 0.0
1.2000000476837158 1.0 0.0
1.2999999523162842 1.0 0.0
1.399999976158142 1.0 0.0
1.5 1.0 0.0
1.600000023841858 1.0 0.0
1.7000000476837158 1.0 0.0
1.7999999523162842 1.0 0.0
1.899999976158142 1.0 0.0
2.0 1.0 0.0
2.0999999046325684 1.0 0.0
2.200000047683716 1.0 0.0
2.299999952316284 1.0 0.0
2.4000000953674316 1.0 0.0
2.5 1.0 0.0
2.5999999046325684 1.0 0.0
2.700000047683716 1.0 0.0
2.799999952316284 1.0 0.0
2.9000000953674316 1.0 0.0
3.0 1.0 0.0
3.0999999046325684 1.0 0.0
3.200000047683716 1.0 0.0
3.299999952316284 1.0 0.0
3.4000000953674316 1.0 0.0
3.5 1.0 0.0
3.5999999046325684 1.0 0.0
3.700000047683716 1.0 0.0
3.799999952316284 1.0 0.0
3.9000000953674316 1.0 0.0
4.0 1.0 0.0
4.099999904632568 1.0 0.0
4.199999809265137 1.0 0.0
4.300000190734863 1.0 0.0
4.400000095367432 1.0 0.0
4.5 1.0 0.0
4.599999904632568 1.0 0.0
4.699999809265137 1.0 0.0
4.800000190734863 1.0 0.0
4.900000095367432 1.0 0.0
5.0 0.8999999761581421 0.0
5.0 0.800000011920929 0.0
5.0 0.699999988079071 0.0
5.0 0.6000000238418579 0.0
5.0 0.5 0.0
5.0 0.4000000059604645 0.0
5.0 0.30000001192092896 0.0
5.0 0.20000000298023224 0.0
5.0 0.10000000149011612 0.0
4.900000095367432 0.0 0.0
4.800000190734863 0.0 0.0
4.699999809265137 0.0 0.0
4.599999904632568 0.0 0.0
4.5 0.0 0.0
4.400000095367432 0.0 0.0
4.300000190734863 0.0 0.0
4.199999809265137 0.0 0.0
4.099999904632568 0.0 0.0
4.0 0.0 0.0
3.9000000953674316 0.0 0.0
3.799999952316284 0.0 0.0
3.700000047683716 0.0 0.0
3.5999999046325684 0.0 0.0
3.5 0.0 0.0
3.4000000953674316 0.0 0.0
3.299999952316284 0.0 0.0
3.200000047683716 0.0 0.0
3.0999999046325684 0.0 0.0
3.0 0.0 0.0
2.9000000953674316 0.0 0.0
2.799999952316284 0.0 0.0
2.700000047683716 0.0 0.0
2.5999999046325684 0.0 0.0
2.5 0.0 0.0
2.4000000953674316 0.0 0.0
2.299999952316284 0.0 0.0
2.200000047683716 0.0 0.0
2.0999999046325684 0.0 0.0
2.0 0.0 0.0
1.899999976158142 0.0 0.0
1.7999999523162842 0.0 0.0
1.7000000476837158 0.0 0.0
1.600000023841858 0.0 0.0
1.5 0.0 0.0
1.399999976158142 0.0 0.0
1.2999999523162842 0.0 0.0
1.2000000476837158 0.0 0.0
1.100000023841858 0.0 0.0
1.0 0.0 0.0
0.8999999761581421 0.0 0.0
0.800000011920929 0.0 0.0
0.699999988079071 0.0 0.0
0.6000000238418579 0.0 0.0
0.5 0.0 0.0
0.4000000059604645 0.0 0.0
0.30000001192092896 0.0 0.0
0.20000000298023224 0.0 0.0
0.10000000149011612 0.0 0.0
0.0 0.10000000149011612 0.0
0.0 0.20000000298023224 0.0
0.0 0.30000001192092896 0.0
0.0 0.4000000059604645 0.0
0.0 0.5 0.0
0.0 0.6000000238418579 0.0
0.0 0.699999988079071 0.0
0.0 0.800000011920929 0.0
0.0 0.8999999761581421 0.0
0.7496038675308228 0.5164291858673096 0.0
1.3451675176620483 0.5190238952636719 0.0
1.9462687969207764 0.4963642954826355 0.0
4.456614971160889 0.5060901641845703 0.0
3.864220380783081 0.4866538345813751 0.0
3.249823808670044 0.482722669839859 0.0
2.6500000953674316 0.5 0.0
0.3810288906097412 0.399004191160202 0.0
2.308779239654541 0.3797946870326996 0.0
1.0499999523162842 0.6625000238418579 0.0
1.644740104675293 0.6598879098892212 0.0
4.150000095367432 0.3375000059604645 0.0
3.555316209793091 0.3343118131160736 0.0
2.9446933269500732 0.3401789665222168 0.0
1.6342840194702148 0.3290160894393921 0.0
1.0591840744018555 0.33908534049987793 0.0
2.9654481410980225 0.6753292679786682 0.0
3.5534629821777344 0.6835107207298279 0.0
4.153462886810303 0.6835107207298279 0.0
2.2139804363250732 0.6805098056793213 0.0
0.4914395809173584 0.6739721894264221 0.0
4.691666603088379 0.6916666626930237 0.0
4.691666603088379 0.3083333373069763 0.0
2.4872219562530518 0.7236665487289429 0.0
0.6240421533584595 0.2677222192287445 0.0
2.0697431564331055 0.2657754421234131 0.0
2.5389034748077393 0.26082900166511536 0.0
0.8147311806678772 0.7450684309005737 0.0
1.2897310256958008 0.743314266204834 0.0
1.8853894472122192 0.7450258731842041 0.0
4.382374286651611 0.23655959963798523 0.0
3.910269021987915 0.25668570399284363 0.0
3.1838724613189697 0.25397706031799316 0.0
1.398239254951477 0.2614254057407379 0.0
3.201760768890381 0.7385746240615845 0.0
3.8017609119415283 0.7385746240615845 0.0
4.39177942276001 0.7466779351234436 0.0
0.25301694869995117 0.7458874583244324 0.0
2.7258167266845703 0.7600342631340027 0.0
0.84163498878479 0.2263137847185135 0.0
0.22429518401622772 0.22429518401622772 0.0
2.7605957984924316 0.22504857182502747 0.0
1.8330284357070923 0.2150011658668518 0.0
0.2192869633436203 0.5323538780212402 0.0
4.7908525466918945 0.5038931369781494 0.0
2.466000556945801 0.5376454591751099 0.0
3.7061264514923096 0.17723728716373444 0.0
3.3929696083068848 0.20266839861869812 0.0
1.4905184507369995 0.7937026619911194 0.0
1.2104878425598145 0.20361483097076416 0.0
3.9895122051239014 0.7963851690292358 0.0
3.389512300491333 0.7963851690292358 0.0
0.5652223825454712 0.5070380568504333 0.0
0.44509074091911316 0.19716571271419525 0.0
2.1318352222442627 0.5042122602462769 0.0
1.548349142074585 0.4954715371131897 0.0
3.050636053085327 0.5004673004150391 0.0
0.9511125087738037 0.498258113861084 0.0
3.651650905609131 0.5045284628868103 0.0
4.248488903045654 0.4980509281158447 0.0
1.1537858247756958 0.49593159556388855 0.0
4.050199031829834 0.49993085861206055 0.0
3.464722156524658 0.509624183177948 0.0
1.749653697013855 0.5001751780509949 0.0
2.851828098297119 0.5057260394096375 0.0
2.359710216522217 0.1888567954301834 0.0
2.0499017238616943 0.8199846148490906 0.0
0.6430503129959106 0.8181284070014954 0.0
4.560274600982666 0.1724673956632614 0.0
4.55863094329834 0.8299665451049805 0.0
2.321284055709839 0.8242537379264832 0.0
4.815218925476074 0.8345447778701782 0.0
4.837246894836426 0.16590170562267303 0.0
0.9682294130325317 0.8331464529037476 0.0
1.730908751487732 0.827606201171875 0.0
4.220076560974121 0.17516615986824036 0.0
3.02066969871521 0.18326662480831146 0.0
1.5634372234344482 0.17044226825237274 0.0
3.035303831100464 0.8294908404350281 0.0
3.627507209777832 0.8360387086868286 0.0
4.2312469482421875 0.8315803408622742 0.0
4.618130683898926 0.5361976027488708 0.0
0.40311703085899353 0.8369210362434387 0.0
1.1473191976547241 0.8458209037780762 0.0
4.052680969238281 0.15417908132076263 0.0
2.020958423614502 0.6394158005714417 0.0
0.662188708782196 0.6447370648384094 0.0
4.5115838050842285 0.3538685142993927 0.0
1.0221220254898071 0.15309639275074005 0.0
0.3837882876396179 0.5515117049217224 0.0
3.548090934753418 0.15800617635250092 0.0
1.4348299503326416 0.6465393304824829 0.0
3.765170097351074 0.3534606993198395 0.0
3.3348300457000732 0.3534606993198395 0.0
1.2546738386154175 0.36384353041648865 0.0
3.945326089859009 0.636156439781189 0.0
3.3412928581237793 0.637225866317749 0.0
2.1904795169830322 0.17066854238510132 0.0
0.16392111778259277 0.38331863284111023 0.0
2.87723445892334 0.8265392184257507 0.0
4.8459792137146 0.6499902606010437 0.0
4.845625400543213 0.34837812185287476 0.0
2.771622896194458 0.38129922747612 0.0
4.5222978591918945 0.6578375697135925 0.0
2.604464530944824 0.8240283727645874 0.0
1.8544400930404663 0.3751189708709717 0.0
0.8566747903823853 0.38255012035369873 0.0
2.2932615280151367 0.5369129776954651 0.0
2.620572805404663 0.6496497392654419 0.0
0.7172287106513977 0.1490369737148285 0.0
0.1410960853099823 0.8303417563438416 0.0
1.7142322063446045 0.142862930893898 0.0
2.6314175128936768 0.14492936432361603 0.0
1.9832650423049927 0.1408119648694992 0.0
2.445650577545166 0.370038241147995 0.0
2.885042667388916 0.1455758661031723 0.0
0.13937503099441528 0.6546638011932373 0.0
0.9110832810401917 0.6349053978919983 0.0
3.088575839996338 0.3613528311252594 0.0
4.296638011932373 0.3563385307788849 0.0
1.1930090188980103 0.6355591416358948 0.0
1.788455843925476 0.6387236714363098 0.0
4.006990909576416 0.3644408583641052 0.0
1.4459187984466553 0.39242905378341675 0.0
4.354081153869629 0.6075709462165833 0.0
3.7540812492370605 0.6075709462165833 0.0
3.1591691970825195 0.6018876433372498 0.0
2.7615907192230225 0.6205627918243408 0.0
2.36276912689209 0.6735464930534363 0.0
1.3681535720825195 0.8630191683769226 0.0
3.8318464756011963 0.1369808316230774 0.0
3.275517463684082 0.10712132602930069 0.0
0.5630941987037659 0.12814241647720337 0.0
1.3237862586975098 0.10638008266687393 0.0
3.2733232975006104 0.8705052733421326 0.0
3.8733232021331787 0.8705052733421326 0.0
2.0396511554718018 0.38928428292274475 0.0
2.2168734073638916 0.8508136868476868 0.0
0.5163488388061523 0.3409615159034729 0.0
0.6547463536262512 0.3955095112323761 0.0
1.9480526447296143 0.8710126876831055 0.0
4.689375877380371 0.13700176775455475 0.0
4.698264122009277 0.8675068616867065 0.0
0.7578787803649902 0.8698469996452332 0.0
2.479548454284668 0.13692785799503326 0.0
2.4562506675720215 0.8735422492027283 0.0
2.171211004257202 0.3573116958141327 0.0
3.5117530822753906 0.853193998336792 0.0
4.107914924621582 0.8658969402313232 0.0
2.640726327896118 0.354434996843338 0.0
4.346996307373047 0.1279495507478714 0.0
0.3128283619880676 0.11246757209300995 0.0
0.136248379945755 0.12152919173240662 0.0
4.453908443450928 0.8629162907600403 0.0
1.6064813137054443 0.8679171800613403 0.0
0.3380795121192932 0.6626779437065125 0.0
0.5102446675300598 0.875635027885437 0.0
0.7425088882446289 0.2989330589771271 0.0
3.1349449157714844 0.10448489338159561 0.0
1.3287748098373413 0.6181886196136475 0.0
3.871795415878296 0.38215625286102295 0.0
3.229135036468506 0.3810797333717346 0.0
0.28971707820892334 0.8759857416152954 0.0
0.9214505553245544 0.11992674320936203 0.0
1.9219478368759155 0.6237660050392151 0.0
1.530794620513916 0.29603153467178345 0.0
3.072223663330078 0.7044162750244141 0.0
3.6722235679626465 0.7044162750244141 0.0
[...]
POINT_DATA 715
SCALARS Psi double
LOOKUP_TABLE default
0.0
0.0
1.0
1.0
1.0
1.0
1.0
1.0
1.0
1.0
1.0
1.0
1.0
1.0
1.0
1.0
1.0
1.0
1.0
1.0
1.0
1.0
1.0
1.0
1.0
1.0
1.0
1.0
1.0
1.0
1.0
1.0
1.0
1.0
1.0
1.0
1.0
1.0
1.0
1.0
1.0
1.0
1.0
1.0
1.0
1.0
1.0
1.0
1.0
1.0
1.0
1.0
1.0
0.9194199729946795
0.8661427822113685
0.7651804372042008
0.6284826285281813
0.4703395583448926
0.3111267435679071
0.17263230707396965
0.0704981806083748
0.018522726222331
0.0
0.0
0.0
0.0
0.0
0.0
0.0
0.0
0.0
0.0
0.0
0.0
0.0
0.0
0.0
0.0
0.0
0.0
0.0
0.0
0.0
0.0
0.0
0.0
0.0
0.0
0.0
0.0
0.0
0.0
0.0
0.0
0.0
0.0
0.0
0.0
0.0
0.0
0.0
0.0
0.0
0.0
-0.0
0.0
0.0
0.0
0.0
0.0
0.0
0.027348994609861926
0.10769484924468152
0.20923046958113445
0.31087386580242515
0.412464477623242
0.5108191018252326
0.6026380040046194
0.6784509001573925
0.641640880489595
0.5300723136335694
0.5436233532821837
0.5007421674245544
0.494205388338295
0.47007487147822874
0.4710058206043292
0.5087070541688048
0.320406052616418
0.3063624642833132
0.7747672029084459
0.7665150845767237
0.22662855920752792
0.22274886094677387
0.24371980642518803
0.22699321783218035
0.25487308611571746
0.7931692056224471
0.7925276382390799
0.7900061362464369
0.7982292994294854
0.7598885675061958
0.7870207188696932
0.17532759590986163
0.8544114177282431
0.15684045076151698
0.14318379703778425
0.13785155514255856
0.8816160469485474
0.8776478007709037
0.8765672956414613
0.09067945021872616
0.12162659753966545
0.12205406506184126
0.13535847138280593
0.8701090150768397
0.8650343587275562
0.8700419959609876
0.7934742608910493
0.9003936891207671
0.11060392153824618
0.1112714247595066
0.0945165085496291
0.08176215100463195
0.46456869467144646
0.47930095957236085
0.5722351354898877
0.039782018486542024
0.06225170924963859
0.9299648592932426
0.06977839468057964
0.9271265435036101
0.9275177153007917
0.49545887075468054
0.0711756505652145
0.5148038691790885
0.5012942710338225
0.5063125265877446
0.5098944099690729
0.5020399203245038
0.48528335521754395
0.5069673569265244
0.49122924246904676
0.5126375456582714
0.5076171983155251
0.5183108672581681
0.05637934243029599
0.953815979033808
0.9590474336207983
0.036409585330160824
0.954036925388168
0.9594868565214736
0.9428194236238647
0.02771049712101755
0.963915359371292
0.9568977187607217
0.03992920622607377
0.05144975147807196
0.040672527872754764
0.9655497136670327
0.9619744433278706
0.9588698222413016
0.5405546919324439
0.9786724715771242
0.970933380733696
0.029486920287839502
0.7353116426410783
0.734462856873825
0.2429844647295016
0.03679806241179584
0.5292908375609301
0.028840975573593986
0.7490012295788815
0.25078888796521626
0.2552266682160691
0.2870073564373435
0.7189546005105595
0.7254113148526428
0.04351726267500102
0.2947970219723227
0.9645686767265693
0.715556184120743
0.22578202634839786
0.30972304267304046
0.7445013092739521
0.9599447634588727
0.29835681842093265
0.32232696101989794
0.5702925004156406
0.7546684944834289
0.03726350214984453
0.8225968837312794
0.02536059992270334
0.026631250552752405
0.024673660896144756
0.29178870812588903
0.02578138523160947
0.5837992763692668
0.7316995661125503
0.273987821646171
0.25149911544795417
0.7338411546228498
0.7335142941443258
0.2688064888669656
0.3294763958017116
0.6681868811015403
0.6743375139887009
0.6742788578365815
0.7094037582559938
0.7867285453945111
0.9791954521733112
0.01752137045129669
0.0018656462250201086
0.021262946499640077
0.0011080879893555094
0.9816366821799485
0.9826495423903657
0.3220382534046649
0.9761383124752513
0.24963625687722024
0.3344929053564341
0.9853675329764326
0.019409321335872847
0.979050680056882
0.9849565755486659
0.022763095948266296
0.9841896159240389
0.27134066995652195
0.9702370152975258
0.9806369386882889
0.26814440324711597
0.005711458410622123
0.0060114158612717804
0.022589995528206813
0.9776563577034749
0.9812298293666902
0.6942349743691187
0.992228152588106
0.19999054168113575
0.0030382069232628714
0.7057706798824515
0.29677533730157557
0.30197912822203027
1.0187570011951697
0.021837763545048287
0.7100573460770411
0.1810397223960241
0.8305385523417441
0.8200947253185957
0.8169252753092365
1.0057442519193562
0.6891973369965202
0.004118153613210801
0.9948161945063605
0.994391429327118
0.15506224178904762
0.3229122628662301
0.18142127691014867
0.9957624266823604
0.003646860620731074
0.8691821581330608
0.291004394959422
0.12751256742782144
0.3409445899839585
0.011376515231251867
0.16199698351458888
0.9905681807960557
0.9901131882938518
0.12420772985343363
0.1894293168893505
-0.001532056895083011
0.4399009507929154
-0.0033837586149364786
0.40476584764413537
0.19066247372112505
-0.003711394336978539
0.000786960388990077
0.4100541871131052
0.4268157181793076
0.4146896233093179
0.5925655677993078
0.5912066335983248
0.003115205886427952
0.5523351997196996
0.001620934372585658
0.6948853111655823
0.12698454855395724
0.6021287623554928
1.001084726636986
0.8071952621869402
0.1732379428127862
0.8050842426611433
0.1816363712936509
0.20010814342570987
0.8172346175794292
0.9983439623831873
0.0016323849902067696
0.1308254444138301
0.866568357907756
0.1325366904485986
0.33051293850500596
0.6192115202082149
0.8292279532789826
0.10366504879916884
0.40817959050140495
0.4167375559756536
0.611201102967351
0.5996362186010833
0.593559029900056
0.020349588223025614
0.6538769887494954
0.1374342341119377
0.8671219502939728
0.8636876462188413
0.595898250575135
0.40835743323160184
0.4229052483282578
0.003814212678567698
0.5897985482037942
0.8686981117849076
0.13289163090085696
1.0063206128636175
0.19305817715561344
0.5743224023784768
0.6579476138605053
0.40528972002852465
0.8631771245283834
0.5815440278246662
0.9991977107998327
0.450169784203848
0.9885091692818885
0.9876712293737457
0.8965454153797519
0.8673499863787624
0.9585410584909757
0.005822810442355994
0.4240166172503242
0.708433382390584
0.5769045282613326
0.6828326682738405
0.3654507080636624
0.10295073671904781
-0.0013924963638061933
0.4398276298507883
0.2114406266047953
0.8408858025678184
0.5648325075385751
0.4416648284462692
0.44692712835833287
0.8513461006500868
0.8766007422224371
0.13640220689829433
0.12151585082121044
0.8691787010398597
0.40896106417492817
0.9990609481774304
0.1423797993963181
0.9062185454533865
0.9073760167980254
0.35613975110702156
0.9178480058223175
1.0040490320751143
0.11265399412827061
0.14124318909522882
0.67824530192948
0.32383598251743223
0.6797741231346197
0.6898267108303255
0.08408198445257023
0.6698590530529277
0.33457908813903064
0.3341693658888668
0.006507256440999728
0.47261615418222575
0.2623836921605418
0.7401661467744122
0.7664851667099626
0.3390771166028057
0.8774118329894611
0.6681883093721721
0.6639811559834199
0.6367108227042603
0.007555910708734951
0.007447292628783791
0.12889072487017447
0.8248001210326292
-0.0030574054855994127
0.9160109966768127
0.9162524216569403
0.8491936811320998
-0.0033532922978053202
-0.0027291040556359754
0.19014124203253752
0.34056384251209126
0.00031764416816134825
1.0004212842382114
0.3369944633198566
0.8882712765967138
1.0001616883887796
0.883483354640215
0.11877989457686255
1.005783599812887
-0.001377738416889018
0.10154740255074297
0.9955353839247482
-0.0004119708745970898
0.3175423188497046
0.0005933230064476484
0.6923442169963326
0.003654834488496624
1.0019335641852232
1.0043885164815283
0.11125613535428044
0.49314587964151974
0.14929186560451438
0.9977601935327182
0.8866744255990706
0.9988941687995949
0.32670746862508715
0.9993730277817554
1.0027988344254255
0.1333188224770783
0.08755828835493255
8.527537250409403e-05
0.27858776017401854
0.6486722956916521
0.585663481345476
0.4122562835249263
0.5640137529815625
1.0039988690194068
0.25554038892336317
0.5718669439368559
0.9999252837538743
0.0003653410454191635
-0.001297501677372579
0.19364382028201493
0.4071583697754301
0.5778292907290096
-0.0017979412658599033
0.9219454964335219
1.0051769084816422
0.8847994102175859
0.09055479818909827
0.9150184105660835
0.9092581593854792
0.6338663920124104
0.07664904140539613
0.8967675341187936
-0.0018973376039676424
0.2773170044028698
0.002634941211734406
0.9331382075210843
0.06654561044377853
-0.0014666722278572578
0.5889813394821946
0.5399691130551868
1.0042099790777164
1.015445919151974
1.001450747170583
0.0013104170024822496
0.43329916890001163
0.6801695994294562
0.6879559517072085
0.6822727482234743
0.3191197579507336
0.3154132230301901
0.3290799300196841
0.9440963640058769
1.0353795424971175
0.9973955649451391
0.9947733758530213
0.9634863854835103
0.6847780809808108
0.7573545833560272
-0.001930283042288203
0.0649461783520658
0.791085843112175
0.7071254568746473
0.2286651697330645
0.8726694802536353
0.08379319934131461
0.07519738102739726
0.7187803361373888
0.6218641218515976
0.43448371719548035
0.9980603790680616
1.0011770754595921
0.7752386447861405
0.10035667538456389
0.9314834574441676
0.2102665905732795
0.9524995726108989
0.052622990022708566
1.0003227426030388
0.0021536620148802773
0.36577469506061117
0.6131750524339405
0.3596436199037914
0.833294091768781
0.0411985279441182
0.5914706314925978
0.3755276741693891
0.8395381324368311
-0.0011399251180581051
-0.003466234488481537
0.18944923055571442
0.1732464030744354
0.05605286805343925
0.1033228422040957
0.9457125800571673
0.8419732608593717
0.1591030213712448
0.8016894999629072
0.20304377887127992
0.906848307077678
0.9041807217154025
0.9036469027646602
-0.004585658853724396
0.9414714827528372
0.3587323031862977
0.21565074810530108
1.0004431892070613
0.16808191013982934
0.5586097466854489
0.7149254273820194
0.6116372663523948
0.6411272533316388
0.043174746185959664
0.9526657205220774
0.951990928991773
0.054794539307797645
0.6962951908068679
-0.006147266601579443
1.0057738372119691
1.0036329174524097
0.03699215680153541
0.04081991095999568
0.895424501661949
0.25192160223239235
0.9485300116844269
0.45004650562168574
0.8604776913074689
-0.00039827375174102787
0.6446884200005821
0.3551408505637948
0.36564796650410497
1.0010985324310415
-0.0020712177943657973
0.5573407019939919
-0.007555590163947012
0.4132232703297213
0.06739197276422372
-0.001141425741565458
0.233996657971366
0.6274395056038005
0.7203129255835407
0.7849540906081868
0.9501466607951351
0.04744668056206643
0.2401677246242616
0.18332830286606996
0.7698405467457359
1.0044229030487277
0.23313291787343826
0.0677836550075871
0.18373275408275297
0.05297973448487252
0.9305343848347014
0.0461348296858925
0.20939171627550285
0.7879724643226573
0.7926009718451973
0.8011610126000852
0.40768110864281193
1.0058766798395498
0.36944879929156194
0.9182691407297803
-0.0011942234722697826
0.050440165888116666
0.039279716982640274
0.5966204727983745
0.06963623091151412
0.0020978599681417912
0.05988050853108334
0.08157809479730403
0.4121755856501111
0.5624374071769689
0.02963651515825237
0.19256125109628933
-0.0018223363457056984
1.000054666089859
0.9189234450536814
0.4338230619257261
0.5715391940574538
0.6277895163309497
0.9393319185727294
0.05105221565710238
0.049977798061827235
0.9982433127802113
0.030196429402312642
0.5060822193290302
0.32405011017797486
0.11870451727123313
-0.0007977793669099098
0.7918089099745329
0.9494512348792296
0.1439565927687307
0.12543873295531963
0.854563843516585
1.0017285362281718
0.04471794518536375
0.944034956682747
0.9437130581944932
0.44405088655278835
0.44291506548923454
1.0007749811966968
0.2141791165169946
0.334677259524267
0.3743473738789056
0.0002611289632195937
0.968084097188536
0.9688990316004087
0.2445558321165315
0.5984886741019968
0.8337067259991391
0.8358339753853693
0.18890334905358086
0.8309926382454608
0.23102482756116058
0.8829832377517834
0.8817433344826973
0.6197060708663666
0.8947801297681249
0.6200472642615652
0.05097013410336531
0.9505937685939884
0.3920973977835057
0.6235686846562517
0.37647911495203124
-0.007131761869971267
0.31269772875221785
0.05683165477493007
-0.0004543037236076064
0.568256222118071
0.11513527402789096
0.22029131119608386
0.08609449626830147
0.8003118867238537
0.8744826960820616
0.9760351243833371
0.5852994542753492
0.00325763182531655
0.4036940611797177
0.07770176796930388
0.9991944581026988
1.0001878765250323
-0.0009330072044031723
0.057929080766077314
0.9464193151788752
0.00041207869230161016
-0.004106550206859018
0.23325250525762908
0.7684664184850472
0.4368652215278845
1.0027847557714515
0.22203429832168553
0.8205199379169187
0.19713733891953056
0.8093221874576991
0.19050628630807218
0.9786976867000919
0.0016154843337104596
0.4078453890274261
1.000886110164607
0.9587113074961806
0.04296161324598284

SCALARS Omega double
LOOKUP_TABLE default
-7.676493673805185
-1.1796664878820422
8.581250659817442
15.920187028035553
36.510891095355106
-6.477764765076519
2.4232610689332508
-4.464721331484277
-0.42783296325984793
1.9235076646945766
0.04828414148943793
-0.6367726272500962
0.48517010026343554
1.1460880866112668
0.23180631162351042
0.8261309249107194
0.547575448878855
0.7960088762972277
1.5576452260170777
-0.08757220038828109
1.4160984223048576
1.2449786463257713
-0.4105476294844127
0.49011717454978077
1.0661241629658667
1.0375311166043748
0.7620173702837394
0.23854185165347794
0.46039784426899066
1.4200821859164576
1.1080659784709939
0.16236296808027922
1.3305267340069222
0.8626204758531056
0.4163730909185093
1.116239576717956
0.7543734472822555
0.37837281978040427
1.3079143061062797
0.6760009344601586
1.3739069925354819
0.6924813358712572
0.43399806291058896
0.3513750352082099
0.9390178559023644
0.7226692910030534
2.117230067271504
0.4639801460582318
-0.46121984728508086
2.155913621320922
0.8677648833600266
1.8587529615304421
9.580308670412776
-7.846258474814345
0.5730312680546656
2.8707645259603667
1.642345116956913
-0.10613627711517898
-1.1644286046110646
-2.6511209796735717
-3.306264502006838
-1.5460016849030507
-0.2507046838340961
-0.648027993651811
-1.0529011902516483
-0.1361665595175328
-0.7021235331117244
-0.3819342244550989
-1.0646741925044878
-0.8168636367884669
-0.3107113448120736
-0.7194838647414794
-0.458161999051573
0.09627461290590675
-1.7647506994927973
-0.649013944984313
0.38738884636102494
-1.4912008253753684
-0.5988045706461129
-0.3004329765834191
-1.1058535880211091
-0.8063971608943195
-0.42561878163200295
-1.1020470091335015
-0.8856091888847714
-1.414099854286273
-0.1716828205343386
-0.5597072627494012
-0.9679243623910423
-1.0820178620212841
-0.7434698621069793
0.6862010269691672
-1.3963530052372954
-1.2261754251024457
0.20409442740781808
-0.8517856682135764
-1.1191741334242895
-0.16268739167688295
-0.5575661545553549
-1.5263249106114305
-1.5308846760046282
-0.3932173995162665
-1.9061517098501546
-0.48591366671856506
-2.0721519394814134
-0.4987774908615147
-0.1399299046077587
-2.0694984573139648
-1.9109522550542948
-0.8190346629917563
0.7511229621827185
-4.592709576328409
2.645809593032279
0.3120424164065013
-0.02540292326220563
-0.8569637407003172
1.649787945165336
-5.889260684152925
-2.3403966471723265
-42.60834072835048
-0.5123534761715111
0.5154201715534578
0.10214155901568192
-0.08162068565375226
-0.28619162337999976
-0.2641764286195722
0.11867929736012539
-0.3761247297742901
-2.006560242423923
3.1285513977939656
2.876645680025488
-2.9595882317404008
-2.958870168025839
-2.700489127876045
-2.8508148822200954
-2.0454368009024426
3.15303219331083
3.1845891229648857
3.140233838563002
3.164033859012535
2.317193697587104
3.182290653475579
-3.5686668708806484
3.98191727961138
-2.586015154645621
-4.176124316763445
-4.1447795981687285
5.215838589520699
4.3561143588314675
4.176442324091445
-4.828622187445323
-4.442605633289826
-4.329231518260529
-4.100215135305914
4.32261925085861
4.134922418532606
4.370165548961074
1.9688252003910485
4.6468440206714785
-3.967535883782553
-1.7028446430863284
-4.745803254302496
-5.079976363971611
-1.4216879202198267
-0.22146316498735533
0.7631695541525662
-6.2806965286684315
-5.450851366460852
5.05297245534608
-5.151945240934213
5.262045918789256
5.073582674687976
-1.264062256008799
-4.899427497705229
0.22057770386036366
0.13449264439508993
0.08609755801612563
-0.17013563012984215
0.0481423413451674
-0.16976356163885703
0.06469698638520596
-0.09101347371743203
0.15876478939037078
0.19541675767557748
0.21186093036875925
-5.605966404647861
5.378072699715243
7.331929747734372
-5.748624002231179
5.847230853911425
5.870593934476481
6.145187564785458
-5.329763461427283
5.6414542682421915
5.244787782556135
-5.573750459173617
-5.464846252717821
-6.385914756443453
6.501299038539387
5.614834319022279
5.746108338957775
0.38514112695978275
13.251653057643253
5.601032208021849
-5.534979881416204
2.4849703997421098
2.267397974547506
-2.706918964756437
-5.4391244535698995
-2.3410211294135386
-5.904686915216056
2.7089943415522266
-2.6316711339424046
-2.5667153709669166
-1.881031659953679
2.278649667964081
2.4075844294462003
-5.565571740833554
0.08634441480632202
6.052153512319935
2.044644068908488
-2.552432308673288
-1.9512010644868572
2.587310919470349
5.627470309629938
-2.035746818881707
-1.2680399782475842
0.7546522434897283
2.696002862634887
-6.110396180665723
-1.8663072153838713
-6.137318451510938
-6.065481398700538
-6.252410205229642
-2.1712845429587
-6.119597511517196
-4.518054211781045
2.4876551609767055
-2.351374807032683
-2.6424292992804057
2.5639629459971585
2.4898985060362877
-2.4566204623206866
-1.5503044388922895
1.7247790716963385
1.8293922564498284
1.8196614736348637
2.1972539412019816
3.0937256474111
5.70222124797486
-6.4513453961704
-7.434553666251783
-6.641442643565837
-8.337946485002064
6.227581163950649
6.771247494849449
-1.7966266834959579
6.647805403786537
-0.9135818572565003
-1.0068704541271192
6.536547817761058
-5.2945628628713495
7.912665050898357
6.006315604359996
-6.057049660356541
5.585585363285253
-2.4071774415421063
5.582531962055171
6.95535208830813
-2.4331608670712748
-8.273170859035629
-10.849658750747054
-8.805222609817596
6.506919100279267
5.739429817675029
-1.0357385410395625
7.100519023878157
-2.167729826597786
-7.757174841285511
2.234341733479912
-2.121338005891778
-2.0505041420146717
23.702490831008134
-6.214790353262064
2.236072790120316
-3.4711087269801655
3.7001241642608846
3.4892790879310147
3.488218873493574
7.459356313617086
1.6266592663996124
-8.214621997196883
8.260531979811802
6.793164930963061
-1.450247054703841
-1.8353101503862022
-3.5385689837894088
6.683945386933513
-6.597508022650451
4.171955509303545
-2.193433537530397
-3.759823253859154
-0.44601195715856007
-6.211256622529821
3.2824840062566643
7.427675006245337
5.573497542135277
-4.344692127926106
-3.4162887816371783
-9.953904151027235
-0.5733922687970733
-7.941469820391986
-1.4071399821296722
-3.3533147112609205
-8.548470171244857
-7.760161391161785
-0.9239790513530466
-0.7107741958654665
-0.8369815024262379
0.7764911039836997
1.0268647182343682
-7.105744444343136
1.4828809648718766
-9.025392728110313
2.05196938461105
-4.244911896911408
-4.132628648571723
9.406106170343538
3.3772907784705675
-3.1134604861026016
3.3664828201968393
-3.479017756980502
-3.2664718125453365
3.47785546679099
6.706924077558648
-6.299348469537101
-4.286165012070492
4.157206117916939
-4.168913896873989
-1.283837006522056
1.2022246746581895
6.225396209294541
-9.925719938008099
-0.7850402286535096
-0.7308142580144004
1.1456865945724313
1.0519023841361472
0.9351212370415585
-6.702179070540768
-8.02351742957786
-3.908730687106315
4.236256060208783
4.1303486522152015
0.9926049844043424
-0.9276065549041931
-0.7501769326685999
-8.621054498162238
1.0006487919176732
4.409712592144432
-4.179136051296414
9.352706359217022
-3.3551218234112414
-0.44023501308803026
0.20499703687977874
-0.9785494497212659
4.023718151875354
0.24144703333413148
8.352822041393761
-0.45804531516727975
6.5041007926227365
6.081239532283665
4.548602121405809
5.49913078306318
2.5770445729802853
-7.435222872406008
-1.2886171438557663
2.1662645011292265
0.8538149665628684
1.9160754102062185
-2.303739208866131
-4.627508640444379
-10.00434184722279
-0.634872202804081
0.7356076462146858
3.7237394312075636
0.7404502632891735
-0.5686954460264432
-0.5051435075398899
5.48627148151205
4.904142942960896
-4.102639611007118
-4.252609839470281