# vtk DataFile Version 1.0
2D Simulation C++
ASCII
DATASET UNSTRUCTURED_GRID
FIELD FieldData 1
NODES 1 2 int
715 1308

POINTS 715 double
0.0 0.0 0.0
5.0 0.0 0.0
5.0 1.0 0.0
0.0 1.0 0.0
0.10000000149011612 1.0 0.0
0.20000000298023224 1.0 0.0
0.30000001192092896 1.0 0.0
0.4000000059604645 1.0 0.0
0.5 1.0 0.0
0.6000000238418579 1.0 0.0
0.699999988079071 1.0 0.0
0.800000011920929 1.0 0.0
0.8999999761581421 1.0 0.0
1.0 1.0 0.0
1.100000023841858 1.0 0.0
1.2000000476837158 1.0 0.0
1.2999999523162842 1.0 0.0
1.399999976158142 1.0 0.0
1.5 1.0 0.0
1.600000023841858 1.0 0.0
1.7000000476837158 1.0 0.0
1.7999999523162842 1.0 0.0
1.899999976158142 1.0 0.0
2.0 1.0 0.0
2.0999999046325684 1.0 0.0
2.200000047683716 1.0 0.0
2.299999952316284 1.0 0.0
2.4000000953674316 1.0 0.0
2.5 1.0 0.0
2.5999999046325684 1.0 0.0
2.700000047683716 1.0 0.0
2.799999952316284 1.0 0.0
2.9000000953674316 1.0 0.0
3.0 1.0 0.0
3.0999999046325684 1.0 0.0
3.200000047683716 1.0 0.0
3.299999952316284 1.0 0.0
3.4000000953674316 1.0 0.0
3.5 1.0 0.0
3.5999999046325684 1.0 0.0
3.700000047683716 1.0 0.0
3.799999952316284 1.0 0.0
3.9000000953674316 1.0 0.0
4.0 1.0 0.0
4.099999904632568 1.0 0.0
4.199999809265137 1.0 0.0
4.300000190734863 1.0 0.0
4.400000095367432 1.0 0.0
4.5 1.0 0.0
4.599999904632568 1.0 0.0
4.699999809265137 1.0 0.0
4.800000190734863 1.0 0.0
4.900000095367432 1.0 0.0
5.0 0.8999999761581421 0.0
5.0 0.800000011920929 0.0
5.0 0.699999988079071 0.0
5.0 0.6000000238418579 0.0
5.0 0.5 0.0
5.0 0.4000000059604645 0.0
5.0 0.30000001192092896 0.0
5.0 0.20000000298023224 0.0
5.0 0.10000000149011612 0.0
4.900000095367432 0.0 0.0
4.800000190734863 0.0 0.0
4.699999809265137 0.0 0.0
4.599999904632568 0.0 0.0
4.5 0.0 0.0
4.400000095367432 0.0 0.0
4.300000190734863 0.0 0.0
4.199999809265137 0.0 0.0
4.099999904632568 0.0 0.0
4.0 0.0 0.0
3.9000000953674316 0.0 0.0
3.799999952316284 0.0 0.0
3.700000047683716 0.0 0.0
3.5999999046325684 0.0 0.0
3.5 0.0 0.0
3.4000000953674316 0.0 0.0
3.299999952316284 0.0 0.0
3.200000047683716 0.0 0.0
3.0999999046325684 0.0 0.0
3.0 0.0 0.0
2.9000000953674316 0.0 0.0
2.799999952316284 0.0 0.0
2.700000047683716 0.0 0.0
2.5999999046325684 0.0 0.0
2.5 0.0 0.0
2.4000000953674316 0.0 0.0
2.299999952316284 0.0 0.0
2.200000047683716 0.0 0.0
2.0999999046325684 0.0 0.0
2.0 0.0 0.0
1.899999976158142 0.0 0.0
1.7999999523162842 0.0 0.0
1.7000000476837158 0.0 0.0
1.600000023841858 0.0 0.0
1.5 0.0 0.0
1.399999976158142 0.0 0.0
1.2999999523162842 0.0 0.0
1.2000000476837158 0.0 0.0
1.100000023841858 0.0 0.0
1.0 0.0 0.0
0.8999999761581421 0.0 0.0
0.800000011920929 0.0 0.0
0.699999988079071 0.0 0.0
0.6000000238418579 0.0 0.0
0.5 0.0 0.0
0.4000000059604645 0.0 0.0
0.30000001192092896 0.0 0.0
0.20000000298023224 0.0 0.0
0.10000000149011612 0.0 0.0
0.0 0.10000000149011612 0.0
0.0 0.20000000298023224 0.0
0.0 0.30000001192092896 0.0
0.0 0.4000000059604645 0.0
0.0 0.5 0.0
0.0 0.6000000238418579 0.0
0.0 0.699999988079071 0.0
0.0 0.800000011920929 0.0
0.0 0.8999999761581421 0.0
0.7496038675308228 0.5164291858673096 0.0
1.3451675176620483 0.5190238952636719 0.0
1.9462687969207764 0.4963642954826355 0.0
4.456614971160889 0.5060901641845703 0.0
3.864220380783081 0.4866538345813751 0.0
3.249823808670044 0.482722669839859 0.0
2.6500000953674316 0.5 0.0
0.3810288906097412 0.399004191160202 0.0
2.308779239654541 0.3797946870326996 0.0
1.0499999523162842 0.6625000238418579 0.0
1.644740104675293 0.6598879098892212 0.0
4.150000095367432 0.3375000059604645 0.0
3.555316209793091 0.3343118131160736 0.0
2.9446933269500732 0.3401789665222168 0.0
1.6342840194702148 0.3290160894393921 0.0
1.0591840744018555 0.33908534049987793 0.0
2.9654481410980225 0.6753292679786682 0.0
3.5534629821777344 0.6835107207298279 0.0
4.153462886810303 0.6835107207298279 0.0
2.2139804363250732 0.6805098056793213 0.0
0.4914395809173584 0.6739721894264221 0.0
4.691666603088379 0.6916666626930237 0.0
4.691666603088379 0.3083333373069763 0.0
2.4872219562530518 0.7236665487289429 0.0
0.6240421533584595 0.2677222192287445 0.0
2.0697431564331055 0.2657754421234131 0.0
2.5389034748077393 0.26082900166511536 0.0
0.8147311806678772 0.7450684309005737 0.0
1.2897310256958008 0.743314266204834 0.0
1.8853894472122192 0.7450258731842041 0.0
4.382374286651611 0.23655959963798523 0.0
3.910269021987915 0.25668570399284363 0.0
3.1838724613189697 0.25397706031799316 0.0
1.398239254951477 0.2614254057407379 0.0
3.201760768890381 0.7385746240615845 0.0
3.8017609119415283 0.7385746240615845 0.0
4.39177942276001 0.7466779351234436 0.0
0.25301694869995117 0.7458874583244324 0.0
2.7258167266845703 0.7600342631340027 0.0
0.84163498878479 0.2263137847185135 0.0
0.22429518401622772 0.22429518401622772 0.0
2.7605957984924316 0.22504857182502747 0.0
1.8330284357070923 0.2150011658668518 0.0
0.2192869633436203 0.5323538780212402 0.0
4.7908525466918945 0.5038931369781494 0.0
2.466000556945801 0.5376454591751099 0.0
3.7061264514923096 0.17723728716373444 0.0
3.3929696083068848 0.20266839861869812 0.0
1.4905184507369995 0.7937026619911194 0.0
1.2104878425598145 0.20361483097076416 0.0
3.9895122051239014 0.7963851690292358 0.0
3.389512300491333 0.7963851690292358 0.0
0.5652223825454712 0.5070380568504333 0.0
0.44509074091911316 0.19716571271419525 0.0
2.1318352222442627 0.5042122602462769 0.0
1.548349142074585 0.4954715371131897 0.0
3.050636053085327 0.5004673004150391 0.0
0.9511125087738037 0.498258113861084 0.0
3.651650905609131 0.5045284628868103 0.0
4.248488903045654 0.4980509281158447 0.0
1.1537858247756958 0.49593159556388855 0.0
4.050199031829834 0.49993085861206055 0.0
3.464722156524658 0.509624183177948 0.0
1.749653697013855 0.5001751780509949 0.0
2.851828098297119 0.5057260394096375 0.0
2.359710216522217 0.1888567954301834 0.0
2.0499017238616943 0.8199846148490906 0.0
0.6430503129959106 0.8181284070014954 0.0
4.560274600982666 0.1724673956632614 0.0
4.55863094329834 0.8299665451049805 0.0
2.321284055709839 0.8242537379264832 0.0
4.815218925476074 0.8345447778701782 0.0
4.837246894836426 0.16590170562267303 0.0
0.9682294130325317 0.8331464529037476 0.0
1.730908751487732 0.827606201171875 0.0
4.220076560974121 0.17516615986824036 0.0
3.02066969871521 0.18326662480831146 0.0
1.5634372234344482 0.17044226825237274 0.0
3.035303831100464 0.8294908404350281 0.0
3.627507209777832 0.8360387086868286 0.0
4.2312469482421875 0.8315803408622742 0.0
4.618130683898926 0.5361976027488708 0.0
0.40311703085899353 0.8369210362434387 0.0
1.1473191976547241 0.8458209037780762 0.0
4.052680969238281 0.15417908132076263 0.0
2.020958423614502 0.6394158005714417 0.0
0.662188708782196 0.6447370648384094 0.0
4.5115838050842285 0.3538685142993927 0.0
1.0221220254898071 0.15309639275074005 0.0
0.3837882876396179 0.5515117049217224 0.0
3.548090934753418 0.15800617635250092 0.0
1.4348299503326416 0.6465393304824829 0.0
3.765170097351074 0.3534606993198395 0.0
3.3348300457000732 0.3534606993198395 0.0
1.2546738386154175 0.36384353041648865 0.0
3.945326089859009 0.636156439781189 0.0
3.3412928581237793 0.637225866317749 0.0
2.1904795169830322 0.17066854238510132 0.0
0.16392111778259277 0.38331863284111023 0.0
2.87723445892334 0.8265392184257507 0.0
4.8459792137146 0.6499902606010437 0.0
4.845625400543213 0.34837812185287476 0.0
2.771622896194458 0.38129922747612 0.0
4.5222978591918945 0.6578375697135925 0.0
2.604464530944824 0.8240283727645874 0.0
1.8544400930404663 0.3751189708709717 0.0
0.8566747903823853 0.38255012035369873 0.0
2.2932615280151367 0.5369129776954651 0.0
2.620572805404663 0.6496497392654419 0.0
0.7172287106513977 0.1490369737148285 0.0
0.1410960853099823 0.8303417563438416 0.0
1.7142322063446045 0.142862930893898 0.0
2.6314175128936768 0.14492936432361603 0.0
1.9832650423049927 0.1408119648694992 0.0
2.445650577545166 0.370038241147995 0.0
2.885042667388916 0.1455758661031723 0.0
0.13937503099441528 0.6546638011932373 0.0
0.9110832810401917 0.6349053978919983 0.0
3.088575839996338 0.3613528311252594 0.0
4.296638011932373 0.3563385307788849 0.0
1.1930090188980103 0.6355591416358948 0.0
1.788455843925476 0.6387236714363098 0.0
4.006990909576416 0.3644408583641052 0.0
1.4459187984466553 0.39242905378341675 0.0
4.354081153869629 0.6075709462165833 0.0
3.7540812492370605 0.6075709462165833 0.0
3.1591691970825195 0.6018876433372498 0.0
2.7615907192230225 0.6205627918243408 0.0
2.36276912689209 0.6735464930534363 0.0
1.3681535720825195 0.8630191683769226 0.0
3.8318464756011963 0.1369808316230774 0.0
3.275517463684082 0.10712132602930069 0.0
0.5630941987037659 0.12814241647720337 0.0
1.3237862586975098 0.10638008266687393 0.0
3.2733232975006104 0.8705052733421326 0.0
3.8733232021331787 0.8705052733421326 0.0
2.0396511554718018 0.38928428292274475 0.0
2.2168734073638916 0.8508136868476868 0.0
0.5163488388061523 0.3409615159034729 0.0
0.6547463536262512 0.3955095112323761 0.0
1.9480526447296143 0.8710126876831055 0.0
4.689375877380371 0.13700176775455475 0.0
4.698264122009277 0.8675068616867065 0.0
0.7578787803649902 0.8698469996452332 0.0
2.479548454284668 0.13692785799503326 0.0
2.4562506675720215 0.8735422492027283 0.0
2.171211004257202 0.3573116958141327 0.0
3.5117530822753906 0.853193998336792 0.0
4.107914924621582 0.8658969402313232 0.0
2.640726327896118 0.354434996843338 0.0
4.346996307373047 0.1279495507478714 0.0
0.3128283619880676 0.11246757209300995 0.0
0.136248379945755 0.12152919173240662 0.0
4.453908443450928 0.8629162907600403 0.0
1.6064813137054443 0.8679171800613403 0.0
0.3380795121192932 0.6626779437065125 0.0
0.5102446675300598 0.875635027885437 0.0
0.7425088882446289 0.2989330589771271 0.0
3.1349449157714844 0.10448489338159561 0.0
1.3287748098373413 0.6181886196136475 0.0
3.871795415878296 0.38215625286102295 0.0
3.229135036468506 0.3810797333717346 0.0
0.28971707820892334 0.8759857416152954 0.0
0.9214505553245544 0.11992674320936203 0.0
1.9219478368759155 0.6237660050392151 0.0
1.530794620513916 0.29603153467178345 0.0
3.072223663330078 0.7044162750244141 0.0
3.6722235679626465 0.7044162750244141 0.0
[...]
POINT_DATA 715
SCALARS Psi double
LOOKUP_TABLE default
0.0
0.0
1.0
1.0
1.0
1.0
1.0
1.0
1.0
1.0
1.0
1.0
1.0
1.0
1.0
1.0
1.0
1.0
1.0
1.0
1.0
1.0
1.0
1.0
1.0
1.0
1.0
1.0
1.0
1.0
1.0
1.0
1.0
1.0
1.0
1.0
1.0
1.0
1.0
1.0
1.0
1.0
1.0
1.0
1.0
1.0
1.0
1.0
1.0
1.0
1.0
1.0
1.0
0.9190880155998654
0.865004584253411
0.763622605859942
0.6277859187506237
0.47142942196349374
0.31384306096091436
0.1756679947428752
0.07244811337589721
0.01913265432052663
0.0
0.0
0.0
0.0
0.0
0.0
0.0
0.0
0.0
0.0
0.0
0.0
0.0
0.0
0.0
0.0
0.0
0.0
0.0
0.0
0.0
0.0
0.0
0.0
0.0
0.0
0.0
0.0
0.0
0.0
0.0
0.0
0.0
0.0
0.0
0.0
0.0
0.0
0.0
0.0
0.0
0.0
-0.0
0.0
0.0
0.0
0.0
0.0
0.0
0.02734881135737225
0.10769440251048511
0.20922971218496883
0.3108728365337532
0.4124632563164358
0.510817792379459
0.6026365733292035
0.6784493137144545
0.6416399844731863
0.5299942606449718
0.5433851070679722
0.500830218684837
0.4939203715790235
0.4686199783389874
0.4711128133106076
0.5110755749635975
0.32039916858492856
0.3092617513095753
0.7746367410851673
0.7652849715661152
0.2276733337268197
0.22317980355290523
0.24660795722513956
0.22783821227773232
0.25483536730138784
0.7927476711803758
0.7898765486364557
0.7872016089386942
0.7972594211617737
0.7598600104795371
0.7850124074082556
0.17805625331687894
0.8541696012537848
0.1568202529099398
0.14510345599785768
0.140566580003296
0.8815688366713812
0.8774025610952494
0.8754235765487169
0.09190816079743885
0.12229694514443362
0.12326486761471372
0.13561583395694818
0.8689179815736554
0.8627818803658013
0.868177598280477
0.7934677809597542
0.9002761347815235
0.11057018433338413
0.11127118658511233
0.09657984440639795
0.08266850410564881
0.4645659017193514
0.48021933133336087
0.5736633584034284
0.039970780731696284
0.06263212299356972
0.9296361092562538
0.06979026122042727
0.9256871857628375
0.9263672376466336
0.49542126597455693
0.07117392409674951
0.5153384337011798
0.5010601978849356
0.5074009633834851
0.5097827882911752
0.5003401805812188
0.48444405889409975
0.5068389217866848
0.4898497580341942
0.5113349395493498
0.507365850742744
0.520254101034803
0.057515271543030495
0.9533750248067366
0.9590388448919013
0.0371344152031863
0.9533007408475201
0.9592743526094227
0.9419529551534854
0.028758279371739172
0.9639054597181022
0.9565688209329132
0.04037456347649995
0.05231071854500448
0.04086049691741881
0.9653507513346309
0.9612872157070019
0.9580789744889265
0.5402249907598631
0.9786719485434091
0.9709310019243748
0.029741078387292157
0.7339487637331225
0.7344050968228345
0.24514436259056394
0.03678902487135124
0.5292774641002672
0.028962737577852962
0.7482984687644281
0.2510422542838313
0.2561613881783933
0.2870820048781956
0.7159315268813566
0.7234272948782879
0.044340245727595456
0.29479596989553586
0.964497220527287
0.7137253054720464
0.22928768005159492
0.31321153214215336
0.7422896449919818
0.9598783778363261
0.29965331152657537
0.322253418241619
0.5710217183710217
0.7549222650519595
0.03725764047681984
0.8225945221749659
0.02557134080343041
0.027304820380192125
0.02505493329689631
0.29515640487571015
0.02629314177620696
0.5837972322429757
0.7315970386025883
0.2760779184869747
0.252847740139507
0.7336031296513837
0.7321143543131596
0.2693102672069056
0.3297304197746859
0.6660039603836646
0.6714789340164437
0.6734602694072968
0.7099426748136588
0.7863341316194826
0.97921050807078
0.017593036408023184
0.0018052974227785146
0.021263380910823575
0.001082000773578509
0.98143790286183
0.9823344736816321
0.32383599029400917
0.9760013087527408
0.24962016063750248
0.3344501840249985
0.9853103994584432
0.01978875750064672
0.9787205630851443
0.984954220722438
0.023220860076057157
0.9841475234271161
0.2738474685975791
0.9697295165694272
0.9802322908438089
0.2717987837221978
0.0057234829349374575
0.006012217016580533
0.02258997711307804
0.9773229513319707
0.9812088076171642
0.6942221567543718
0.9922321186228511
0.19994923129468153
0.0030084091505981837
0.705346638311959
0.29684572014100924
0.3032183429971965
1.018758007361118
0.021832207843399384
0.7087068334623936
0.18159899777929564
0.829703418955356
0.8175195690263153
0.8144992270625679
1.0058209752166205
0.6891140475681113
0.004089629112731745
0.9947619929858431
0.9944101285316919
0.15506035807878782
0.3252902613087214
0.18316797502862264
0.9957841518471071
0.003624464442638505
0.8689058105243227
0.29247031096561393
0.12747870725690327
0.34094198961992095
0.011548027452125237
0.16199636970635634
0.9905817439656369
0.9901116966420132
0.1263493535519203
0.19064524020092677
-0.001544730620684283
0.44274367209448995
-0.003539646787574817
0.404764549680652
0.19373695243623143
-0.003766382807870413
0.0007111601330545485
0.40974274966423907
0.4290930485621226
0.41391869448052954
0.59242366622394
0.5904767358162044
0.0030948047062824067
0.5523552869754356
0.0015966151372048272
0.6954079752025538
0.12971407273299332
0.60212397089704
1.0011927027179377
0.8044403005957871
0.1732534179212232
0.8027661427378235
0.18233567224784858
0.2004920915219731
0.8162957160033756
0.9983391076485477
0.0015628254584739915
0.1313918360645766
0.8661284655662886
0.13352886726016808
0.3304366202177274
0.6181792674292161
0.8271746823219336
0.10681166748546564
0.4084402803428123
0.4166485330624034
0.6118951179493725
0.5973864112278219
0.5914435420848212
0.02034141532671766
0.6538753655498127
0.13757069038166497
0.8655667174923298
0.8613343269130687
0.5956622454875855
0.40762592920100776
0.42402064935262956
0.0036849822031482966
0.5890043419377178
0.8685814950289441
0.13388894468388526
1.0064208633520384
0.19606583190047366
0.5742632952844531
0.6579035945637347
0.4063595050473587
0.861987226952989
0.5814420128754545
0.9993086841537067
0.45230845685912097
0.9883217543346233
0.9875193762361187
0.8957697752355993
0.8673104060929474
0.9583602205252661
0.006123464403715809
0.42399970480557075
0.7087640161135519
0.5765611580067662
0.6819604530657437
0.36809144332852095
0.10479597033245129
-0.0013917531114240184
0.439834565141742
0.21143940643297923
0.8396985556155435
0.5644469595728815
0.44043125048426623
0.44664470213839447
0.8513140878309918
0.8765448994239023
0.13804532837311292
0.1228054066014623
0.8680291133429148
0.41092649460557235
0.9991172192063982
0.14236886342988433
0.904631113236654
0.9056969885376446
0.35927185787300603
0.9175104471583577
1.0040556922606476
0.1143381114190207
0.1434241531229828
0.6757824956594565
0.32425977435063996
0.6769449251045653
0.6894424360912419
0.08468615280739403
0.6690036596030785
0.3342620128294432
0.3342884029625109
0.006507629831457703
0.47524961160312473
0.26259788522324673
0.7371414808099701
0.7649543214962954
0.3398687626727934
0.8772512565498045
0.6658598598715
0.6612327328499867
0.6349440158568761
0.007654895168619816
0.007453422599152831
0.1316153103661348
0.8228231875429554
-0.0030805834269255145
0.9159991832215122
0.9157261209013747
0.8473034293649517
-0.003422909767439378
-0.002833012391524778
0.19013546228932207
0.3419643658181532
0.0001344661548049795
1.0004425858791237
0.33693360705777836
0.8865983528540936
1.0002136191722544
0.8834218435645418
0.11984442943238054
1.0058370970842903
-0.0015728419219883279
0.10361751299935676
0.9954614798007214
-0.0005034211008501274
0.3175388751613376
0.0005972393104361207
0.6905389515867328
0.0036825627131764314
1.0020418425004263
1.0044744143411533
0.11172754382192797
0.49314451175927626
0.15152815950941945
0.9978309119443226
0.8862901496474043
0.9988926711879262
0.3293745202184726
0.9993648213742552
1.0028014975710413
0.13329884238987058
0.08795514300190393
6.196632161914655e-05
0.28093504288731413
0.6490717516199901
0.5856357146021749
0.4122287809629285
0.5618062797258049
1.0040176394558635
0.2555394754824079
0.5709098040879242
0.9999338146044389
0.00031476387408811316
-0.0013624320948599732
0.19359119892600796
0.40715105262670936
0.5794841086193466
-0.0018589201556900798
0.9205694555160255
1.005266606153561
0.8847918805503147
0.09086224742422888
0.914315420728177
0.9075964891073566
0.6350621864998475
0.07816068909027767
0.89532881469519
-0.001889832449556047
0.2810285936327783
0.0026034146822859192
0.933063878017366
0.0670592749823101
-0.0015045940242814117
0.587782527696694
0.5399622940669091
1.0042785181202338
1.0154477270258475
1.001532705046521
0.001286292176448109
0.4337082871649284
0.6800442683534053
0.6877732036449842
0.6810668380490672
0.3198111207407386
0.3158073765086944
0.3314872522686151
0.9439443871569414
1.0353804570090381
0.9973961525327747
0.9946948423757599
0.9634573523105202
0.6847571098936415
0.7572802929169531
-0.0020536614862851402
0.06493993744721137
0.7911819539748249
0.7054594278118321
0.23220829609829638
0.8726688870688675
0.0854969588033336
0.07588145941797728
0.7183996995100048
0.6191896286585096
0.4344002823277187
0.9981312352810701
1.0012721412866457
0.7728851624402194
0.10033128411409874
0.9308989271684752
0.21369697024528067
0.9524290400314556
0.05387138549607205
1.0003777766046227
0.0021546450774867485
0.3675805150325224
0.6123596019185163
0.3631226506174109
0.8332785186793525
0.04185160184548112
0.5915983078768667
0.3755259486772358
0.8383212024673079
-0.0011979584133051053
-0.003594262977215597
0.1894485708624453
0.17549375965242445
0.05633846529841537
0.1047817985424418
0.9456918949813949
0.8417645752183112
0.15990392473768372
0.8015943654318066
0.20431933384348927
0.9068452703918638
0.9023999052249806
0.9020815532213498
-0.004707739813874769
0.9409275165603589
0.3587034893686728
0.21768140906360775
1.000534045538774
0.16952245981785305
0.5584644633189851
0.7131930527086326
0.609864705555467
0.6410554806027083
0.04323830508540816
0.952118990016566
0.951031977553682
0.056119611632341894
0.6962915773551476
-0.0061824808333999495
1.0059473180451834
1.0037558969326439
0.0373491141800512
0.04248402408370718
0.8943984651436134
0.2518953077746001
0.9477336349325916
0.45109983742937737
0.8598708550618966
-0.0003983871952198132
0.644223610895241
0.3546685571395438
0.36622931980648465
1.0011411848028766
-0.002121375158782482
0.5573394226504343
-0.007554602184275517
0.41325197956728565
0.06738351814045587
-0.0011403399384914044
0.23572742992186832
0.6265815384894141
0.720311195118894
0.7834473790288853
0.9500748261875391
0.04777014964244066
0.2424686958467013
0.18496786358725142
0.7697568460564536
1.0045519450844032
0.23309700715682682
0.06894456503034811
0.18563425683509732
0.0539411782852469
0.9301091056466416
0.04670538246345615
0.20979571112730588
0.7855137712874948
0.7897863429013352
0.7999935494201603
0.4075910283738428
1.005883710494911
0.37053507886612647
0.9174597807312616
-0.0012683859601395975
0.051104626153531875
0.04024045686835092
0.5980479163607747
0.07058372843499626
0.002098638583684665
0.05988020380740904
0.08157804579769684
0.415046624933514
0.5612063127726532
0.030289812420693694
0.19572145327285054
-0.0018222685288899435
1.0001165459974561
0.9188935833285132
0.43383350499218165
0.56924777296349
0.6267683289868521
0.9391376271690238
0.051319329638666464
0.050345064308435564
0.998244362943513
0.030496398897408416
0.5060802083167751
0.3271104216306687
0.11868293340906995
-0.0008976267367194906
0.7918307359732237
0.9494436744836884
0.14475728464786367
0.12592418109154463
0.8539279469783171
1.0017428347122825
0.04473827628343646
0.9432535562981742
0.9426064441580291
0.44487967279505114
0.44286062227607886
1.0008438558533268
0.21412619312309666
0.3346761611744211
0.3747737451318814
0.0002696938423474756
0.9674454252549117
0.9683833110242781
0.24455271222484734
0.595947017032752
0.8311648778995341
0.8339455236668178
0.18896833621175746
0.8308979733374021
0.23382768533750564
0.8810352785578325
0.8797802734510003
0.6195934376341794
0.8942286113997776
0.6191109609164502
0.05147847336409323
0.9505742344867452
0.3937833731483394
0.6233686659725775
0.3761622281148405
-0.007330434684588212
0.31268451409473175
0.05682922827067882
-0.0005395401495003483
0.5667968617786688
0.11568475705435421
0.22024123408284518
0.08609426335846153
0.8002472366036399
0.8743609956985819
0.9759914235583224
0.5853817077103113
0.0032569164077864946
0.40505277453649724
0.07767541972347228
0.9992394705628814
1.0002455190156263
-0.0010085170415479999
0.0579291840207139
0.9455323214026805
0.0003857579608459005
-0.004331017787130599
0.23382677203335256
0.7681374237060058
0.4368608962242589
1.0028948078763986
0.22506443667359383
0.8190939375536851
0.19846644805494582
0.8088889038251592
0.1910810089291397
0.9787198412972156
0.0016526047605968852
0.411051687035323
1.0008889294525998
0.9585549766697053
0.043748957295419104

SCALARS Omega double
LOOKUP_TABLE default
-7.6764701559373565
-1.1914320542581438
8.560356498380296
15.920294147438574
36.51119365214288
-6.477652345182215
2.423234024304518
-4.465770259493111
-0.42825730852988636
1.923073922001616
0.04767096881734844
-0.6378218187032133
0.485485892961233
1.144796960200414
0.22683160240954744
0.8258450413648947
0.5304962570895976
0.7920882995442965
1.5474155934221903
-0.10065420650586841
1.4081690065689507
1.244871539213792
-0.44563655695366583
0.49054710250523137
1.070510522642562
1.0450531562193157
0.7547051949559098
0.2412069203700903
0.45747110111455797
1.4203978930634926
1.1074678452744575
0.153255141023349
1.3307735677954253
0.8542494557034478
0.41631224369540376
1.126862424516052
0.754220798517341
0.3797201520348485
1.3257795566005472
0.6809203330919952
1.396159144440261
0.7056378975421318
0.43144193916571094
0.35616791198167996
0.953270894096156
0.7335299745367071
2.1605783966663505
0.4686238489663457
-0.4868165084588095
2.1911304279441315
0.8868112734732528
1.8904417181956512
9.601717183865766
-7.772694542083454
0.5312981627322547
2.769085069102501
1.5831900547232889
-0.09415855912401398
-1.0644415876358597
-2.5521983688706666
-3.226979450344163
-1.614677970075526
-0.268487481952459
-0.6794756343742969
-1.0778380047290528
-0.11954837786524798
-0.7200461192514631
-0.3769509046855381
-1.0711089126044753
-0.8185875804547481
-0.30639755715755446
-0.7159239196667577
-0.4556178800479979
0.1109089608130655
-1.7741088530119855
-0.6445040857545584
0.3961328928584858
-1.5032557483984081
-0.5996315896157615
-0.2899120195024716
-1.1271006081695647
-0.815721724841701
-0.42831555566356994
-1.123213910208942
-0.9038213217640999
-1.4472780406376895
-0.1515694645396316
-0.5555123541651158
-0.9921133906828633
-1.1095895724009066
-0.74855239837467
0.7073962038525606
-1.4144070762399714
-1.2394074193626077
0.2215021288392126
-0.855591119483956
-1.11776602797693
-0.15380576815817365
-0.5522853047476282
-1.5244423407665186
-1.5301192978442855
-0.39130953318514317
-1.9062201421469227
-0.48633404491649634
-2.0721747961005086
-0.499114262889688
-0.14050107639387266
-2.0695259296432624
-1.9110624654066084
-0.8190242565738125
0.751101442857688
-4.59272692538818
2.64580433203982
0.31203093345829086
-0.025430344987491554
-0.8569639752839001
1.6497367764921422
-5.889170774789434
-2.34017734621131
-42.60850458530199
-0.5138399065273621
0.5088282065671943
0.08310010605022759
-0.09140503406316522
-0.30618635830275676
-0.2407534124883578
0.1678675290815063
-0.3755552202477095
-1.8424938711760854
3.1240771997236862
2.766404511056973
-2.8227877861811246
-2.8578708601916096
-2.5224658676019063
-2.770485411088045
-2.044607497211888
3.0507144865030758
3.016677787787903
2.9548413628497405
3.0327186958473296
2.3154496957565995
3.0152312006885804
-3.3883220734331325
3.914022185524775
-2.5862572480616564
-4.053383864137664
-4.018018606837108
5.215120307291127
4.349851142566941
4.093044193725266
-4.753088537662111
-4.353161579805792
-4.265503693693969
-4.078682685475106
4.235838240148778
4.032489354673208
4.2673322964518245
1.968165806067635
4.602501340181284
-3.9687677849605896
-1.702780456289006
-4.685403520147059
-5.037078884074132
-1.421321829849067
-0.19583053573113748
0.7440596703024218
-6.293983745247534
-5.45505376409928
5.059335617986056
-5.156963455239187
5.2615530083714965
5.058966890894293
-1.2638476454306782
-4.8989307064101935
0.19603476759360516
0.1321578485194635
0.11746468219432192
-0.17300490594080445
0.00399902108930516
-0.18225912352926193
0.062359726404393724
-0.12084038523920818
0.11880237832564092
0.1783149400207263
0.25129358024494697
-5.642224023263215
5.413580488639856
7.334176493804811
-5.811508402586245
5.897999020084923
5.897459854453581
6.154053076673128
-5.435295281110323
5.649491786313375
5.29932476747603
-5.607052477587861
-5.5031165273173706
-6.409415044352159
6.533635860658291
5.694850907994927
5.807422062559716
0.3313703004839082
13.253483880253192
5.619961655842868
-5.580305521677822
2.3302038470627053
2.264853653682517
-2.518375317623465
-5.439731806015078
-2.340339981290269
-5.936953689604324
2.657662297076495
-2.5260116962349395
-2.4561327766190684
-1.8681026641547045
2.0921520775584757
2.2581368114245177
-5.6089321744744325
0.08641963790176432
6.073225918530987
1.8723735618848536
-2.3393568218877583
-1.7640019778198401
2.3916072888981845
5.632997253675255
-1.9247082616240185
-1.2693545711922996
0.70253596763924
2.604285368154043
-6.108156637129543
-1.866973364206052
-6.189287888883889
-6.178947756412372
-6.342898630478409
-1.9792689020871852
-6.2409855336061595
-4.517649147623951
2.4838081388172917
-2.2136795464007455
-2.4911188217540565
2.5531609519692227
2.363477844562039
-2.3339156633712443
-1.5173063029148695
1.5610777064105714
1.6686132637122209
1.7178402516246092
2.120748613232208
2.992868308268779
5.750203652385455
-6.50691300115133
-7.525949053526976
-6.640015006568608
-8.358129086331997
6.32373867094149
6.914002020691334
-1.6651539000516704
6.705756445354925
-0.9132623889300314
-1.0067488578676758
6.644385959026702
-5.419952859406858
8.029224624644282
6.009518459687171
-6.208318374084526
5.611458198199351
-2.234346459795667
5.672249706490925
7.085832635895073
-2.2176638530975676
-8.415299632567784
-10.849380951709616
-8.8051735090265
6.628866964363393
5.821450600360473
-1.036272899532241
7.103699853593249
-2.168650407308864
-7.894629715694067
2.210503944555473
-2.0232786318592666
-1.9439596812869577
23.70394555884817
-6.213273146922348
2.102138143380495
-3.4189830543998516
3.598496371369588
3.3384576594150297
3.3206625825935916
7.494098490119027
1.6236726928095764
-8.260564817695847
8.445840502659141
6.887700717967818
-1.4500684957377852
-1.6617513572407603
-3.3980832555759797
6.694978939018205
-6.674579639912733
4.1020850836430585
-2.0412465815759955
-3.761750781569545
-0.44565656274758747
-6.33401283487101
3.282459834777134
7.543181301769072
5.57613629804278
-4.225335371386792
-3.309567130144456
-9.957307726953033
-0.4720094695871637
-8.180571332155422
-1.4070627771950146
-3.172934739805849
-8.60973994090847
-7.83643178370061
-0.8772868169704952
-0.6059335938541061
-0.8156001056225368
0.7718247892412584
0.9754263403420974
-7.273742946609821
1.4041557885323332
-9.173827396426883
1.9764272800799814
-4.121470027321772
-4.132207384549155
9.626186923658068
3.2117718782660103
-3.110005308332693
3.2163693506455653
-3.382642046270334
-3.1661817253099365
3.3966954218111423
6.701645665917304
-6.406709652182161
-4.198120094263919
4.130322510513425
-4.095908638178738
-1.2850342385133193
1.079138272777129
5.904978540777379
-9.566013955268435
-0.749232139425901
-0.73172933389632
1.106538998691745
0.9444349277561236
0.820329489505837
-6.701454786514884
-8.023089886773096
-3.897521169299854
4.132303828659175
4.014099828671098
0.9837686177243005
-0.8930485847433781
-0.676373295708862
-8.883988261054546
0.9210218855430684
4.408961879881545
-4.065920184099964
9.423093729209135
-3.165160891558336
-0.4414418295117042
0.2034608816313174
-0.8896604822657673
3.926133855247178
0.23854903900085636
8.4282886640216
-0.39217899883501517
6.667103903620454
6.200027051251916
4.508053049259056
5.497583522144301
2.791507607369844
-7.685307833593999
-1.2877165496185101
2.076956376134834
0.7722778745320534
1.7755758675797821
-2.0468607024532868
-4.566170774337796
-10.004051049007728
-0.5975992256782727
0.7357433596931529
3.6063968082547846
0.7235081706074924
-0.5707184720505732
-0.48206249377073307
5.484606504503883
4.904360817344802
-4.020593420141899
-4.134508822573808
3.9760161104216514