# vtk DataFile Version 1.0
2D Simulation C++
ASCII
DATASET UNSTRUCTURED_GRID
FIELD FieldData 1
NODES 1 2 int
715 1308

POINTS 715 double
0.0 0.0 0.0
5.0 0.0 0.0
5.0 1.0 0.0
0.0 1.0 0.0
0.10000000149011612 1.0 0.0
0.20000000298023224 1.0 0.0
0.30000001192092896 1.0 0.0
0.4000000059604645 1.0 0.0
0.5 1.0 0.0
0.6000000238418579 1.0 0.0
0.699999988079071 1.0 0.0
0.800000011920929 1.0 0.0
0.8999999761581421 1.0 0.0
1.0 1.0 0.0
1.100000023841858 1.0 0.0
1.2000000476837158 1.0 0.0
1.2999999523162842 1.0 0.0
1.399999976158142 1.0 0.0
1.5 1.0 0.0
1.600000023841858 1.0 0.0
1.7000000476837158 1.0 0.0
1.7999999523162842 1.0 0.0
1.899999976158142 1.0 0.0
2.0 1.0 0.0
2.0999999046325684 1.0 0.0
2.200000047683716 1.0 0.0
2.299999952316284 1.0 0.0
2.4000000953674316 1.0 0.0
2.5 1.0 0.0
2.5999999046325684 1.0 0.0
2.700000047683716 1.0 0.0
2.799999952316284 1.0 0.0
2.9000000953674316 1.0 0.0
3.0 1.0 0.0
3.0999999046325684 1.0 0.0
3.200000047683716 1.0 0.0
3.299999952316284 1.0 0.0
3.4000000953674316 1.0 0.0
3.5 1.0 0.0
3.5999999046325684 1.0 0.0
3.700000047683716 1.0 0.0
3.799999952316284 1.0 0.0
3.9000000953674316 1.0 0.0
4.0 1.0 0.0
4.099999904632568 1.0 0.0
4.199999809265137 1.0 0.0
4.300000190734863 1.0 0.0
4.400000095367432 1.0 0.0
4.5 1.0 0.0
4.599999904632568 1.0 0.0
4.699999809265137 1.0 0.0
4.800000190734863 1.0 0.0
4.900000095367432 1.0 0.0
5.0 0.8999999761581421 0.0
5.0 0.800000011920929 0.0
5.0 0.699999988079071 0.0
5.0 0.6000000238418579 0.0
5.0 0.5 0.0
5.0 0.4000000059604645 0.0
5.0 0.30000001192092896 0.0
5.0 0.20000000298023224 0.0
5.0 0.10000000149011612 0.0
4.900000095367432 0.0 0.0
4.800000190734863 0.0 0.0
4.699999809265137 0.0 0.0
4.599999904632568 0.0 0.0
4.5 0.0 0.0
4.400000095367432 0.0 0.0
4.300000190734863 0.0 0.0
4.199999809265137 0.0 0.0
4.099999904632568 0.0 0.0
4.0 0.0 0.0
3.9000000953674316 0.0 0.0
3.799999952316284 0.0 0.0
3.700000047683716 0.0 0.0
3.5999999046325684 0.0 0.0
3.5 0.0 0.0
3.4000000953674316 0.0 0.0
3.299999952316284 0.0 0.0
3.200000047683716 0.0 0.0
3.0999999046325684 0.0 0.0
3.0 0.0 0.0
2.9000000953674316 0.0 0.0
2.799999952316284 0.0 0.0
2.700000047683716 0.0 0.0
2.5999999046325684 0.0 0.0
2.5 0.0 0.0
2.4000000953674316 0.0 0.0
2.299999952316284 0.0 0.0
2.200000047683716 0.0 0.0
2.0999999046325684 0.0 0.0
2.0 0.0 0.0
1.899999976158142 0.0 0.0
1.7999999523162842 0.0 0.0
1.7000000476837158 0.0 0.0
1.600000023841858 0.0 0.0
1.5 0.0 0.0
1.399999976158142 0.0 0.0
1.2999999523162842 0.0 0.0
1.2000000476837158 0.0 0.0
1.100000023841858 0.0 0.0
1.0 0.0 0.0
0.8999999761581421 0.0 0.0
0.800000011920929 0.0 0.0
0.699999988079071 0.0 0.0
0.6000000238418579 0.0 0.0
0.5 0.0 0.0
0.4000000059604645 0.0 0.0
0.30000001192092896 0.0 0.0
0.20000000298023224 0.0 0.0
0.10000000149011612 0.0 0.0
0.0 0.10000000149011612 0.0
0.0 0.20000000298023224 0.0
0.0 0.30000001192092896 0.0
0.0 0.4000000059604645 0.0
0.0 0.5 0.0
0.0 0.6000000238418579 0.0
0.0 0.699999988079071 0.0
0.0 0.800000011920929 0.0
0.0 0.8999999761581421 0.0
0.7496038675308228 0.5164291858673096 0.0
1.3451675176620483 0.5190238952636719 0.0
1.9462687969207764 0.4963642954826355 0.0
4.456614971160889 0.5060901641845703 0.0
3.864220380783081 0.4866538345813751 0.0
3.249823808670044 0.482722669839859 0.0
2.6500000953674316 0.5 0.0
0.3810288906097412 0.399004191160202 0.0
2.308779239654541 0.3797946870326996 0.0
1.0499999523162842 0.6625000238418579 0.0
1.644740104675293 0.6598879098892212 0.0
4.150000095367432 0.3375000059604645 0.0
3.555316209793091 0.3343118131160736 0.0
2.9446933269500732 0.3401789665222168 0.0
1.6342840194702148 0.3290160894393921 0.0
1.0591840744018555 0.33908534049987793 0.0
2.9654481410980225 0.6753292679786682 0.0
3.5534629821777344 0.6835107207298279 0.0
4.153462886810303 0.6835107207298279 0.0
2.2139804363250732 0.6805098056793213 0.0
0.4914395809173584 0.6739721894264221 0.0
4.691666603088379 0.6916666626930237 0.0
4.691666603088379 0.3083333373069763 0.0
2.4872219562530518 0.7236665487289429 0.0
0.6240421533584595 0.2677222192287445 0.0
2.0697431564331055 0.2657754421234131 0.0
2.5389034748077393 0.26082900166511536 0.0
0.8147311806678772 0.7450684309005737 0.0
1.2897310256958008 0.743314266204834 0.0
1.8853894472122192 0.7450258731842041 0.0
4.382374286651611 0.23655959963798523 0.0
3.910269021987915 0.25668570399284363 0.0
3.1838724613189697 0.25397706031799316 0.0
1.398239254951477 0.2614254057407379 0.0
3.201760768890381 0.7385746240615845 0.0
3.8017609119415283 0.7385746240615845 0.0
4.39177942276001 0.7466779351234436 0.0
0.25301694869995117 0.7458874583244324 0.0
2.7258167266845703 0.7600342631340027 0.0
0.84163498878479 0.2263137847185135 0.0
0.22429518401622772 0.22429518401622772 0.0
2.7605957984924316 0.22504857182502747 0.0
1.8330284357070923 0.2150011658668518 0.0
0.2192869633436203 0.5323538780212402 0.0
4.7908525466918945 0.5038931369781494 0.0
2.466000556945801 0.5376454591751099 0.0
3.7061264514923096 0.17723728716373444 0.0
3.3929696083068848 0.20266839861869812 0.0
1.4905184507369995 0.7937026619911194 0.0
1.2104878425598145 0.20361483097076416 0.0
3.9895122051239014 0.7963851690292358 0.0
3.389512300491333 0.7963851690292358 0.0
0.5652223825454712 0.5070380568504333 0.0
0.44509074091911316 0.19716571271419525 0.0
2.1318352222442627 0.5042122602462769 0.0
1.548349142074585 0.4954715371131897 0.0
3.050636053085327 0.5004673004150391 0.0
0.9511125087738037 0.498258113861084 0.0
3.651650905609131 0.5045284628868103 0.0
4.248488903045654 0.4980509281158447 0.0
1.1537858247756958 0.49593159556388855 0.0
4.050199031829834 0.49993085861206055 0.0
3.464722156524658 0.509624183177948 0.0
1.749653697013855 0.5001751780509949 0.0
2.851828098297119 0.5057260394096375 0.0
2.359710216522217 0.1888567954301834 0.0
2.0499017238616943 0.8199846148490906 0.0
0.6430503129959106 0.8181284070014954 0.0
4.560274600982666 0.1724673956632614 0.0
4.55863094329834 0.8299665451049805 0.0
2.321284055709839 0.8242537379264832 0.0
4.815218925476074 0.8345447778701782 0.0
4.837246894836426 0.16590170562267303 0.0
0.9682294130325317 0.8331464529037476 0.0
1.730908751487732 0.827606201171875 0.0
4.220076560974121 0.17516615986824036 0.0
3.02066969871521 0.18326662480831146 0.0
1.5634372234344482 0.17044226825237274 0.0
3.035303831100464 0.8294908404350281 0.0
3.627507209777832 0.8360387086868286 0.0
4.2312469482421875 0.8315803408622742 0.0
4.618130683898926 0.5361976027488708 0.0
0.40311703085899353 0.8369210362434387 0.0
1.1473191976547241 0.8458209037780762 0.0
4.052680969238281 0.15417908132076263 0.0
2.020958423614502 0.6394158005714417 0.0
0.662188708782196 0.6447370648384094 0.0
4.5115838050842285 0.3538685142993927 0.0
1.0221220254898071 0.15309639275074005 0.0
0.3837882876396179 0.5515117049217224 0.0
3.548090934753418 0.15800617635250092 0.0
1.4348299503326416 0.6465393304824829 0.0
3.765170097351074 0.3534606993198395 0.0
3.3348300457000732 0.3534606993198395 0.0
1.2546738386154175 0.36384353041648865 0.0
3.945326089859009 0.636156439781189 0.0
3.3412928581237793 0.637225866317749 0.0
2.1904795169830322 0.17066854238510132 0.0
0.16392111778259277 0.38331863284111023 0.0
2.87723445892334 0.8265392184257507 0.0
4.8459792137146 0.6499902606010437 0.0
4.845625400543213 0.34837812185287476 0.0
2.771622896194458 0.38129922747612 0.0
4.5222978591918945 0.6578375697135925 0.0
2.604464530944824 0.8240283727645874 0.0
1.8544400930404663 0.3751189708709717 0.0
0.8566747903823853 0.38255012035369873 0.0
2.2932615280151367 0.5369129776954651 0.0
2.620572805404663 0.6496497392654419 0.0
0.7172287106513977 0.1490369737148285 0.0
0.1410960853099823 0.8303417563438416 0.0
1.7142322063446045 0.142862930893898 0.0
2.6314175128936768 0.14492936432361603 0.0
1.9832650423049927 0.1408119648694992 0.0
2.445650577545166 0.370038241147995 0.0
2.885042667388916 0.1455758661031723 0.0
0.13937503099441528 0.6546638011932373 0.0
0.9110832810401917 0.6349053978919983 0.0
3.088575839996338 0.3613528311252594 0.0
4.296638011932373 0.3563385307788849 0.0
1.1930090188980103 0.6355591416358948 0.0
1.788455843925476 0.6387236714363098 0.0
4.006990909576416 0.3644408583641052 0.0
1.4459187984466553 0.39242905378341675 0.0
4.354081153869629 0.6075709462165833 0.0
3.7540812492370605 0.6075709462165833 0.0
3.1591691970825195 0.6018876433372498 0.0
2.7615907192230225 0.6205627918243408 0.0
2.36276912689209 0.6735464930534363 0.0
1.3681535720825195 0.8630191683769226 0.0
3.8318464756011963 0.1369808316230774 0.0
3.275517463684082 0.10712132602930069 0.0
0.5630941987037659 0.12814241647720337 0.0
1.3237862586975098 0.10638008266687393 0.0
3.2733232975006104 0.8705052733421326 0.0
3.8733232021331787 0.8705052733421326 0.0
2.0396511554718018 0.38928428292274475 0.0
2.2168734073638916 0.8508136868476868 0.0
0.5163488388061523 0.3409615159034729 0.0
0.6547463536262512 0.3955095112323761 0.0
1.9480526447296143 0.8710126876831055 0.0
4.689375877380371 0.13700176775455475 0.0
4.698264122009277 0.8675068616867065 0.0
0.7578787803649902 0.8698469996452332 0.0
2.479548454284668 0.13692785799503326 0.0
2.4562506675720215 0.8735422492027283 0.0
2.171211004257202 0.3573116958141327 0.0
3.5117530822753906 0.853193998336792 0.0
4.107914924621582 0.8658969402313232 0.0
2.640726327896118 0.354434996843338 0.0
4.346996307373047 0.1279495507478714 0.0
0.3128283619880676 0.11246757209300995 0.0
0.136248379945755 0.12152919173240662 0.0
4.453908443450928 0.8629162907600403 0.0
1.6064813137054443 0.8679171800613403 0.0
0.3380795121192932 0.6626779437065125 0.0
0.5102446675300598 0.875635027885437 0.0
0.7425088882446289 0.2989330589771271 0.0
3.1349449157714844 0.10448489338159561 0.0
1.3287748098373413 0.6181886196136475 0.0
3.871795415878296 0.38215625286102295 0.0
3.229135036468506 0.3810797333717346 0.0
0.28971707820892334 0.8759857416152954 0.0
0.9214505553245544 0.11992674320936203 0.0
1.9219478368759155 0.6237660050392151 0.0
1.530794620513916 0.29603153467178345 0.0
3.072223663330078 0.7044162750244141 0.0
3.6722235679626465 0.7044162750244141 0.0
[...]
POINT_DATA 715
SCALARS Psi double
LOOKUP_TABLE default
0.0
0.0
1.0
1.0
1.0
1.0
1.0
1.0
1.0
1.0
1.0
1.0
1.0
1.0
1.0
1.0
1.0
1.0
1.0
1.0
1.0
1.0
1.0
1.0
1.0
1.0
1.0
1.0
1.0
1.0
1.0
1.0
1.0
1.0
1.0
1.0
1.0
1.0
1.0
1.0
1.0
1.0
1.0
1.0
1.0
1.0
1.0
1.0
1.0
1.0
1.0
1.0
1.0
0.919344617315579
0.8658794331284578
0.764809769536153
0.628295509374884
0.4705508070760632
0.3117080227528613
0.17329478872126744
0.07092613814844638
0.01865571857349431
0.0
0.0
0.0
0.0
0.0
0.0
0.0
0.0
0.0
0.0
0.0
0.0
0.0
0.0
0.0
0.0
0.0
0.0
0.0
0.0
0.0
0.0
0.0
0.0
0.0
0.0
0.0
0.0
0.0
0.0
0.0
0.0
0.0
0.0
0.0
0.0
0.0
0.0
0.0
0.0
0.0
0.0
-0.0
0.0
0.0
0.0
0.0
0.0
0.0
0.027349011242478124
0.10769489044866014
0.20923053390379448
0.3108739472421323
0.4124645636128345
0.5108191777777522
0.6026380529773891
0.6784509134572121
0.6416408933669341
0.5300659056820587
0.5436072056662095
0.5008122374030665
0.49400046379603807
0.4695852795825514
0.47128759817854676
0.5093108567159114
0.3204063106983746
0.3069673430906619
0.7747539551605637
0.7664418147256322
0.2266638750883072
0.2228612753751758
0.24454429339952263
0.22709317207617394
0.2548640402980779
0.7932399574245564
0.7919921178498889
0.7892835797408481
0.7980434983932105
0.7598868820968521
0.7865454574531816
0.17588891336241072
0.8543414600962896
0.15684045710484754
0.14353919317076416
0.13846315039600193
0.8816121248906766
0.8776397518958533
0.8764542327310108
0.09087049297551479
0.12167205936907029
0.12242767312612221
0.13537496639907742
0.8699734051730568
0.8644950455119956
0.8695920632386851
0.7934739288939601
0.9003877457619629
0.11060249441552022
0.11127154184739482
0.09502172373230988
0.08189247664497769
0.46456879149093006
0.4794577515447817
0.5725464214117193
0.039813857179737365
0.062368205807792704
0.929963061686608
0.06977865825585289
0.926773813128208
0.9273209165713464
0.4954571048879353
0.07117596830964476
0.5149354973141713
0.5012942662771385
0.5068351223419694
0.5098808439260152
0.5016415033318161
0.4848890878563686
0.5069496829096753
0.4907025002794423
0.512479635854199
0.5076365475561704
0.5189429571240414
0.056612645660514646
0.9537638593188164
0.9590473238798476
0.03654590704548412
0.9538686246671961
0.9594382153979737
0.9426237367521824
0.02793700089669723
0.9639146878163313
0.9568931117777859
0.03998028140743909
0.05168562826450629
0.04068698364152397
0.9655324935266226
0.9618308170643769
0.9586793637993355
0.5403992664455024
0.9786722515970513
0.9709324927252817
0.029511966250491562
0.7351323621439643
0.7344584947460485
0.24334880423389835
0.036798479205872335
0.5292904855748681
0.028873334662493637
0.7489704834927805
0.2507391707939213
0.25558395466133
0.2870031933925201
0.7181562447707701
0.7251547927454093
0.043672986037876955
0.2947971457889625
0.9645642078855969
0.7151162409956873
0.226538015904725
0.3106351345178652
0.7439513814369775
0.9599184817246499
0.2985764504206801
0.32232037842071654
0.570443309712519
0.7547521202687987
0.03726398903921705
0.822596837019507
0.025380935899622332
0.02678040908654691
0.024734478322755205
0.29252803757385004
0.025907251667953917
0.5837993082680099
0.7316880708513543
0.2746696375116515
0.2516144889919097
0.7338244707021847
0.7334011219841163
0.26871705578437594
0.32949669744882804
0.6675803479360041
0.6736347590759405
0.674351460130445
0.7096317025339904
0.7866268701979428
0.9792001635514146
0.017529799054294314
0.0018541591089745522
0.021263279934713802
0.001110010758630244
0.9816112480142932
0.9825740809533633
0.32238344923083206
0.9761189267539728
0.2496363812503834
0.33449115205489527
0.9853722581862585
0.019483260674464934
0.9789764095769535
0.9849572117367288
0.022857858075944513
0.984175417438404
0.2718381362865312
0.970143230348312
0.9805385302542347
0.2690209687295652
0.005702923791957702
0.006011468766033709
0.022590015386367745
0.977578698226505
0.9812437106622444
0.6942343633340383
0.9922282656038062
0.1999888490148859
0.0030312553579705474
0.7057493461712859
0.29662578030214437
0.30246615132333415
1.0187569905492495
0.021838248881749445
0.7099160364528064
0.1810915345255779
0.8305119836657224
0.8195161385187072
0.8163146595730718
1.0057498331777817
0.6891894909496769
0.0041166119163321465
0.994806546721653
0.9943968629089605
0.1550625118607904
0.32337531787925394
0.18171662505311836
0.9957610271138398
0.003643815356530967
0.869200596283516
0.2911616217791652
0.1275092919336578
0.3409448052365535
0.011405265826559898
0.1619970400490043
0.9905796731490435
0.9901141311207088
0.12464143323262904
0.18959985147993264
-0.001530845418116375
0.4405576926414501
-0.003426217547883346
0.4047659562012233
0.19146821335743025
-0.003714578661906922
0.0007699577520424508
0.4097529697732016
0.4275666941534237
0.414567762309938
0.5925483428538686
0.5911732355273025
0.003103804283824414
0.552302008330698
0.001610626302848972
0.6949997386926531
0.12762625213478854
0.6021286617295948
1.0011083033923986
0.8064889900369212
0.17323319816327687
0.8046774756539018
0.18185727259977266
0.20015323355603404
0.817192435669101
0.9983438704602392
0.0016178955631633496
0.13086801533612785
0.8665556782308756
0.13285235113262106
0.33050314347813564
0.6189302640137806
0.8287514041439102
0.10435788422878738
0.4082337614312571
0.4167229876488883
0.6115965297795367
0.5991956984518417
0.5928989358955636
0.020350011284127757
0.6538770171952589
0.1374392610642694
0.8668968676883614
0.8631084366186126
0.5958789455406782
0.4079874453053103
0.42342817375315384
0.00378014721112476
0.5897517530459931
0.8686900303325825
0.1329734722560451
1.0063268365033307
0.1936952362135848
0.5743183328351906
0.6579448502010633
0.4054089660756548
0.8630189545945214
0.5815334005099397
0.9992070512455228
0.4506212386311369
0.9884629745314388
0.9876505955531883
0.8965129954516917
0.867347278118702
0.9585023116018684
0.00588643393463743
0.42401638759295474
0.708666587952581
0.5768944768802693
0.6827039712733766
0.36600797041806926
0.10344520879839177
-0.0013924607815031947
0.4396453456588493
0.21144082219554114
0.8406985857864342
0.5648147495859804
0.4412892403708292
0.44706646274897044
0.8513440743533975
0.8765949595898505
0.13689019349483006
0.12168334147989018
0.8690897636146669
0.4093649688318225
0.9990790927116798
0.14238015174424548
0.905896815917703
0.9069635067232775
0.3570240158266068
0.9178346142809014
1.0040492677319708
0.11295404484935231
0.14166570406470985
0.6775597096366214
0.3238816288259228
0.6791343119408642
0.6899869876576686
0.08414731969339119
0.6698165097635248
0.3344692749164485
0.33430574238642646
0.006507276807735016
0.4733411822723481
0.262392441080295
0.7394052313520381
0.7663455707443599
0.3392055814502184
0.8773702502181723
0.6677845819959235
0.6632065024993363
0.6362097917289203
0.007578920606385574
0.007442753263941765
0.1294753905714232
0.8243403455103715
-0.0030557716821397823
0.9160102723109997
0.9161467139841005
0.8487513382450388
-0.003360530155944391
-0.0027513421901529957
0.19014160434145422
0.3408259700545205
0.00027450615494001903
1.000428850804515
0.33699067581431186
0.8878778241657626
1.0001722507779431
0.8834769571540991
0.1188909561629274
1.0057879782642583
-0.0014254994012339848
0.10199515549104489
0.9955186829760918
-0.0004329147706589736
0.31753195555141334
0.000593632077423849
0.6918871276207608
0.0036555615547324036
1.0019600648912985
1.0043965934122818
0.11137878720811871
0.49314596137673017
0.14972713512238783
0.9977706223736765
0.8865719515256959
0.998894493020236
0.32725605134538543
0.9993698483656047
1.00279882298565
0.13331486604141488
0.0876353849160557
7.55649015774289e-05
0.2790220942043099
0.6487454550477079
0.5856621662094609
0.41224576759835
0.563338176305217
1.0040006167881097
0.2555404632525055
0.5715517585870205
0.9999250150254356
0.0003574689744027834
-0.001316952470102621
0.19363914697769374
0.4071584851217034
0.5782330237937161
-0.0018058852674598682
0.9216163727907318
1.0051838413068512
0.8847989105098618
0.09057914214948215
0.9149495996768041
0.9088803003435788
0.6342189989679067
0.07695498284421744
0.896437641616228
-0.0018964813987598183
0.2781680512766988
0.0026243844136984488
0.933135386303128
0.06659285472536676
-0.0014732504397344573
0.5889418485581625
0.539969003457764
1.0042297346446243
1.0154459013423942
1.0014766369627122
0.001303556744903606
0.4334056674465115
0.6801550556521654
0.6879384886589889
0.6821926616953762
0.31905717426612723
0.3152750840668882
0.3298525473191259
0.9440479425301244
1.0353796695915274
0.9974013301609449
0.9947535077242385
0.9634733780761637
0.6847770151946397
0.7573209321004719
-0.001964677754165371
0.06494668155693269
0.7911611221590612
0.7067229093794521
0.22943629921293676
0.8726695114289656
0.08422602918727405
0.07528392994925254
0.7186943227381252
0.6211268964949574
0.434476201100777
0.9980682891180324
1.001201542653042
0.7746516663348265
0.10035624549884904
0.9313882826197152
0.211117248369973
0.952490422141351
0.05289933282150409
1.0003350357572067
0.002153933568886001
0.3661358763212411
0.6129521025813772
0.36051829158633714
0.8332931601391869
0.04130549240885262
0.5915112779817746
0.3755278233667344
0.8394582515142213
-0.0011513108899835476
-0.0035009163110472853
0.1894493275157025
0.1738952551314079
0.05613281783034508
0.10357728786149926
0.9457116790008304
0.8419628523388616
0.15913806139070819
0.8016789875985311
0.2031507627645425
0.9068481598077127
0.9037409615880161
0.9033540182980819
-0.004618285480165985
0.9414335454521325
0.3587316174859743
0.21601908697150457
1.0004544045851613
0.1683077243382217
0.5588543292182745
0.7145054796638161
0.6114236643509307
0.6411213799836237
0.04318055499373641
0.9525947994996222
0.9517642854484955
0.05507352203319243
0.6962950889207976
-0.00614655410610085
1.005815320402634
1.0036538935969483
0.03710207212675518
0.041186240160565525
0.895190664601232
0.2519212446937964
0.9483489102802698
0.45021411032271413
0.8603390032420389
-0.00039826481375281183
0.6446653841259447
0.3548977764646826
0.3659885326966515
1.0010998807464635
-0.002076781067843091
0.5573407719388521
-0.007555584066899477
0.41322346561862755
0.06739111924513065
-0.001141366819334344
0.2345710852156777
0.6273591008411231
0.7203129203576355
0.7848071128993306
0.9501471560303962
0.04747893907074699
0.2406074974931223
0.1835518604799608
0.769831958665154
1.004451347041346
0.2331318711313903
0.06799695548731487
0.18403452957732927
0.05316936737540584
0.930527486687789
0.04621004248523936
0.2094222073652672
0.7873527874710836
0.7919344035261686
0.8010886208802849
0.4076713588482505
1.0058769635770755
0.3695397241517511
0.9181822500599031
-0.0012125347209418057
0.050632404663958755
0.039501935387379845
0.5970850732384846
0.06978547666520393
0.0020969082244754592
0.0598805385598206
0.08157826401780544
0.41281090252045166
0.5620149813968816
0.02979138585144637
0.19325890058829168
-0.0018223331742997742
1.0000634239644588
0.9189217426793737
0.43383158379051723
0.5709646056141022
0.6278169013171079
0.9393328954459035
0.05108401631360391
0.05009373915201619
0.9982437792024484
0.030231340774577294
0.506082291508894
0.32470427968771814
0.11870443572828446
-0.0008215960107898185
0.7918123479384918
0.9494509080432028
0.14421277568064203
0.12549450034941123
0.8545422280348138
1.0017331411238732
0.04472057628905253
0.9439152906105954
0.9434443917784264
0.4442376868416473
0.442911914257195
1.0007896323762813
0.21417575563165142
0.3346773469244423
0.37423632136809104
0.0002618214763516982
0.9679280533019976
0.9688101510590315
0.24455611137476882
0.5978089257645081
0.8330650054260096
0.8355341127576082
0.1889008543465691
0.83104301434384
0.23159405353632298
0.8825654178750185
0.881260070271216
0.619693208168892
0.8947527836835018
0.6199898105774638
0.05102407462632873
0.9505917734239545
0.39273496685162373
0.6235500733024717
0.37618809311378276
-0.007173060070454567
0.3126978718177644
0.056832035707050116
-0.0004760213744520364
0.5677656365814845
0.11518893314284592
0.2202844586486382
0.08609455198339633
0.8003062836162476
0.8744674118164153
0.9760451794298182
0.5855964747405852
0.0032580221997716248
0.4039076838989055
0.07770072464299316
0.9992046386924625
1.000201296044699
-0.0009549745842159156
0.05792929967817601
0.946209738075516
0.0004064384431942806
-0.004158703233036255
0.23320779235181305
0.7684495517436783
0.43686534389507975
1.0028102332693274
0.22267017128622943
0.8203545080634703
0.197582352001693
0.809305334432842
0.19050515675128255
0.9787037869482129
0.001622160496578055
0.4086175742487687
1.0008861622665568
0.9586680430141757
0.04316851208539342

SCALARS Omega double
LOOKUP_TABLE default
-7.676494714014488
-1.181725416765716
8.576164062998824
15.920184373919172
36.51090219043428
-6.477769015804251
2.423277548393191
-4.4647470998855745
-0.4278442318045796
1.9233816583465706
0.048137189614254165
-0.6370960085438241
0.4850760532518521
1.145863318324284
0.23189971089294295
0.826082524293594
0.5467376301278448
0.7955531860522651
1.5554716423337627
-0.089643089135194
1.4121714285722726
1.2428656450834894
-0.415745863365302
0.48804333039379905
1.0657101831247293
1.0378065874875904
0.7604814158256409
0.23904326921011051
0.4604095742238506
1.4219400432883438
1.108980484854019
0.16259332909805083
1.3308814095736217
0.8611408531216124
0.41607518469181054
1.1174222491405603
0.7533576079454808
0.3779485476214519
1.310637937130723
0.6757868067349613
1.3785265054957445
0.6958675523589867
0.43352451052757685
0.35254916689814003
0.9426129774472691
0.7254662421756986
2.1274379539002877
0.46520382060430787
-0.4672003457691997
2.1636657675927284
0.8718661299641433
1.8652448576666176
9.584658691806082
-7.828978262558443
0.5637571098533962
2.8475522301149434
1.6286964543907323
-0.10367743938981525
-1.1418770406246594
-2.628629696528745
-3.287951155769964
-1.561438783643831
-0.25399374161579985
-0.654325869596845
-1.057794766809626
-0.13150089255251932
-0.7050220949783822
-0.37967358960605213
-1.0648486957396528
-0.8159961055733163
-0.3097932026558711
-0.7185869882894875
-0.45773045945753615
0.09802101967739836
-1.7667290932688904
-0.648023756895373
0.38798009171801917
-1.4947200175538424
-0.5996035971479576
-0.297994535992422
-1.1115783289799033
-0.8085293742661828
-0.4248815051317703
-1.1060975106587714
-0.888859385672748
-1.4203719559191939
-0.16658748041349608
-0.5578701733369051
-0.9719698960391233
-1.0870957629188922
-0.7432787637391194
0.6908228341986844
-1.3982729670261247
-1.2274699844229708
0.2077374327398084
-0.8520491682796082
-1.1186666672326622
-0.16255147398595102
-0.5574231101212508
-1.5265016156658697
-1.5310014603510098
-0.3935297797356347
-1.906292162222689
-0.4859913790768851
-2.0722681262265117
-0.4988200939343033
-0.13995849675100347
-2.0695179397989807
-1.9109589093674404
-0.8190373420240883
0.7511215623864937
-4.5927096832322345
2.645808645200519
0.31204153808854984
-0.02540602439489836
-0.8569637745139235
1.6497835781251156
-5.889255213040388
-2.3403822049839387
-42.608352222477635
-0.5124193708777411
0.5143805813882979
0.09999180332165306
-0.08794384554927774
-0.29643809010322075
-0.24981746356518283
0.13072254960840013
-0.3760763569382859
-1.9727782866300363
3.1279295352166447
2.868211676224328
-2.9364747473288135
-2.9381743883102245
-2.655315710153807
-2.8436676109585055
-2.045739742838059
3.134952045814151
3.148258686334392
3.0999258507702403
3.135542198443568
2.317074214326895
3.1461402739952318
-3.528030581861355
3.9637676936486703
-2.5859349880084754
-4.154084759661211
-4.116878609067034
5.2158401096334535
4.35666675974444
4.167020188634172
-4.812206303341817
-4.4254657156284996
-4.315425648393391
-4.099457159289037
4.304861077340563
4.112171359060563
4.350248297231456
1.9687824866670862
4.63467865881219
-3.967432276099236
-1.702843821858766
-4.733292927603572
-5.075469631012867
-1.421666171928016
-0.21627333002918278
0.7571214764002243
-6.28059717175388
-5.454030948439257
5.056237756515652
-5.151908838775105
5.264681527669763
5.069001272250625
-1.2639800398781726
-4.899392356210058
0.2162199994494926
0.13385990113394722
0.1026150496596489
-0.17053041538782962
0.037653389559743025
-0.17922568516675974
0.06389958331759715
-0.10502902675890775
0.15487494064452742
0.19380773661872638
0.22661426557689984
-5.615080991668004
5.385289441285047
7.332298952879645
-5.760706108968442
5.860670159199801
5.875644298642658
6.148582811892703
-5.352966257838387
5.642197231702024
5.254220798301759
-5.5773099267290025
-5.477899204620234
-6.389456941409645
6.501483858417567
5.63312443152701
5.762820312178698
0.37164111139784506
13.251716064359016
5.601987074270512
-5.539087993434266
2.4599528036437657
2.267166655484091
-2.668503220908331
-5.438534727547078
-2.3409595133860392
-5.911704648112195
2.7065394003485133
-2.6133704518130343
-2.5390138412129564
-1.8812067080618518
2.2347950836983594
2.3805450930660115
-5.575049007543581
0.08634024525961012
6.050328525751542
2.005956426816491
-2.503913090679277
-1.9053181639181551
2.545018321338738
5.625317117420519
-2.020547139851799
-1.268021768937551
0.7426793488716247
2.6744513055710644
-6.110145089796668
-1.8663430245165271
-6.145789505931159
-6.094174392156888
-6.26975896912612
-2.1295519930507267
-6.153551210067008
-4.518029765227247
2.487063256741583
-2.3143387095411954
-2.6156087134560084
2.563220769090143
2.4767640824538706
-2.4376051506155014
-1.54906295022464
1.6872190419112103
1.791918499323903
1.8061227769196024
2.1826620612340184
3.0687202238851228
5.7048990560515165
-6.457039481338593
-7.460237247145355
-6.641378254528266
-8.337900270641919
6.243270907832187
6.805815334401648
-1.7739773148752116
6.660469535684439
-0.9135018830354754
-1.006718399363298
6.5520774298869835
-5.321727060576887
7.939857564807742
6.006888205599474
-6.092165624869961
5.591580426253651
-2.3740316927534435
5.601594291531348
6.987368369506487
-2.3831141706190864
-8.297831550980861
-10.849669437569451
-8.805225357054054
6.535971748314665
5.746988639302944
-1.0357698416992398
7.100680771316298
-2.167647068217803
-7.796093262102845
2.2331467157195672
-2.1065486877733592
-2.0207464775940833
23.70255277402528
-6.21438349562862
2.2180076415868775
-3.4677407126074073
3.6813012307752313
3.4555064510557827
3.4531760076719054
7.463790608733964
1.6263178470859125
-8.217732023007514
8.303295010935546
6.805548346501301
-1.450234436050769
-1.7978723502529315
-3.516870285722175
6.68260794998013
-6.60590987314202
4.156661000832578
-2.1657619744933885
-3.7598411276391106
-0.4459951074529168
-6.234267764496973
3.2824802748062556
7.440072283770577
5.57421625505667
-4.320340071284483
-3.4036153810504697
-9.953507865986648
-0.5511394496370651
-7.999898675406333
-1.4071377018838382
-3.3096466654112473
-8.557271253368787
-7.78059540943932
-0.9220827397027337
-0.679499072182569
-0.8309864681143282
0.7757327253977523
1.0224309583292033
-7.138764665063167
1.4642927512174593
-9.049764554699337
2.032769396413574
-4.217148996943513
-4.13260087302726
9.45679873605624
3.340868855332306
-3.1136966703412927
3.335503687156935
-3.45829537491658
-3.2473673292001353
3.4736943476722257
6.706898046706544
-6.313830405636588
-4.269541176371026
4.157241579854073
-4.153256556025036
-1.2839866482836693
1.1745203749126576
6.152671806077947
-9.842945920784436
-0.7821753930308323
-0.7312813675037707
1.1449987327777422
1.0304661484034285
0.9047689009346068
-6.701977309905472
-8.023488438454896
-3.908608464028964
4.214637749053443
4.105073040013212
0.9915212849631496
-0.9276708056877446
-0.7244204118279797
-8.676612826275516
0.991322170391685
4.409883268593497
-4.157943481297672
9.358119258672483
-3.3147483751783695
-0.44029431241315364
0.20488744151342475
-0.9625158779078385
4.0079526651493405
0.2411155766160411
8.355323510625107
-0.44515047358703536
6.543230019819855
6.103114986254406
4.548441478052577
5.499065779546615
2.627799764916792
-7.491287693439513
-1.2885123709657418
2.151254094691342
0.8406170176684257
1.890079197210847
-2.2461726411592196
-4.614522350846074
-10.00441418309973
-0.6328269568846351
0.7356077714074961
3.7013866082578897
0.7389251212658022
-0.5729465633058812
-0.49284940646303765
5.486163864640258
4.904063368556012
-4.083545429347382
-4.229016405791219
4.051412213707077
-0.8527488697875836