# vtk DataFile Version 1.0
2D Simulation C++
ASCII
DATASET UNSTRUCTURED_GRID
FIELD FieldData 1
NODES 1 2 int
715 1308

POINTS 715 double
0.0 0.0 0.0
5.0 0.0 0.0
5.0 1.0 0.0
0.0 1.0 0.0
0.10000000149011612 1.0 0.0
0.20000000298023224 1.0 0.0
0.30000001192092896 1.0 0.0
0.4000000059604645 1.0 0.0
0.5 1.0 0.0
0.6000000238418579 1.0 0.0
0.699999988079071 1.0 0.0
0.800000011920929 1.0 0.0
0.8999999761581421 1.0 0.0
1.0 1.0 0.0
1.100000023841858 1.0 0.0
1.2000000476837158 1.0 0.0
1.2999999523162842 1.0 0.0
1.399999976158142 1.0 0.0
1.5 1.0 0.0
1.600000023841858 1.0 0.0
1.7000000476837158 1.0 0.0
1.7999999523162842 1.0 0.0
1.899999976158142 1.0 0.0
2.0 1.0 0.0
2.0999999046325684 1.0 0.0
2.200000047683716 1.0 0.0
2.299999952316284 1.0 0.0
2.4000000953674316 1.0 0.0
2.5 1.0 0.0
2.5999999046325684 1.0 0.0
2.700000047683716 1.0 0.0
2.799999952316284 1.0 0.0
2.9000000953674316 1.0 0.0
3.0 1.0 0.0
3.0999999046325684 1.0 0.0
3.200000047683716 1.0 0.0
3.299999952316284 1.0 0.0
3.4000000953674316 1.0 0.0
3.5 1.0 0.0
3.5999999046325684 1.0 0.0
3.700000047683716 1.0 0.0
3.799999952316284 1.0 0.0
3.9000000953674316 1.0 0.0
4.0 1.0 0.0
4.099999904632568 1.0 0.0
4.199999809265137 1.0 0.0
4.300000190734863 1.0 0.0
4.400000095367432 1.0 0.0
4.5 1.0 0.0
4.599999904632568 1.0 0.0
4.699999809265137 1.0 0.0
4.800000190734863 1.0 0.0
4.900000095367432 1.0 0.0
5.0 0.8999999761581421 0.0
5.0 0.800000011920929 0.0
5.0 0.699999988079071 0.0
5.0 0.6000000238418579 0.0
5.0 0.5 0.0
5.0 0.4000000059604645 0.0
5.0 0.30000001192092896 0.0
5.0 0.20000000298023224 0.0
5.0 0.10000000149011612 0.0
4.900000095367432 0.0 0.0
4.800000190734863 0.0 0.0
4.699999809265137 0.0 0.0
4.599999904632568 0.0 0.0
4.5 0.0 0.0
4.400000095367432 0.0 0.0
4.300000190734863 0.0 0.0
4.199999809265137 0.0 0.0
4.099999904632568 0.0 0.0
4.0 0.0 0.0
3.9000000953674316 0.0 0.0
3.799999952316284 0.0 0.0
3.700000047683716 0.0 0.0
3.5999999046325684 0.0 0.0
3.5 0.0 0.0
3.4000000953674316 0.0 0.0
3.299999952316284 0.0 0.0
3.200000047683716 0.0 0.0
3.0999999046325684 0.0 0.0
3.0 0.0 0.0
2.9000000953674316 0.0 0.0
2.799999952316284 0.0 0.0
2.700000047683716 0.0 0.0
2.5999999046325684 0.0 0.0
2.5 0.0 0.0
2.4000000953674316 0.0 0.0
2.299999952316284 0.0 0.0
2.200000047683716 0.0 0.0
2.0999999046325684 0.0 0.0
2.0 0.0 0.0
1.899999976158142 0.0 0.0
1.7999999523162842 0.0 0.0
1.7000000476837158 0.0 0.0
1.600000023841858 0.0 0.0
1.5 0.0 0.0
1.399999976158142 0.0 0.0
1.2999999523162842 0.0 0.0
1.2000000476837158 0.0 0.0
1.100000023841858 0.0 0.0
1.0 0.0 0.0
0.8999999761581421 0.0 0.0
0.800000011920929 0.0 0.0
0.699999988079071 0.0 0.0
0.6000000238418579 0.0 0.0
0.5 0.0 0.0
0.4000000059604645 0.0 0.0
0.30000001192092896 0.0 0.0
0.20000000298023224 0.0 0.0
0.10000000149011612 0.0 0.0
0.0 0.10000000149011612 0.0
0.0 0.20000000298023224 0.0
0.0 0.30000001192092896 0.0
0.0 0.4000000059604645 0.0
0.0 0.5 0.0
0.0 0.6000000238418579 0.0
0.0 0.699999988079071 0.0
0.0 0.800000011920929 0.0
0.0 0.8999999761581421 0.0
0.7496038675308228 0.5164291858673096 0.0
1.3451675176620483 0.5190238952636719 0.0
1.9462687969207764 0.4963642954826355 0.0
4.456614971160889 0.5060901641845703 0.0
3.864220380783081 0.4866538345813751 0.0
3.249823808670044 0.482722669839859 0.0
2.6500000953674316 0.5 0.0
0.3810288906097412 0.399004191160202 0.0
2.308779239654541 0.3797946870326996 0.0
1.0499999523162842 0.6625000238418579 0.0
1.644740104675293 0.6598879098892212 0.0
4.150000095367432 0.3375000059604645 0.0
3.555316209793091 0.3343118131160736 0.0
2.9446933269500732 0.3401789665222168 0.0
1.6342840194702148 0.3290160894393921 0.0
1.0591840744018555 0.33908534049987793 0.0
2.9654481410980225 0.6753292679786682 0.0
3.5534629821777344 0.6835107207298279 0.0
4.153462886810303 0.6835107207298279 0.0
2.2139804363250732 0.6805098056793213 0.0
0.4914395809173584 0.6739721894264221 0.0
4.691666603088379 0.6916666626930237 0.0
4.691666603088379 0.3083333373069763 0.0
2.4872219562530518 0.7236665487289429 0.0
0.6240421533584595 0.2677222192287445 0.0
2.0697431564331055 0.2657754421234131 0.0
2.5389034748077393 0.26082900166511536 0.0
0.8147311806678772 0.7450684309005737 0.0
1.2897310256958008 0.743314266204834 0.0
1.8853894472122192 0.7450258731842041 0.0
4.382374286651611 0.23655959963798523 0.0
3.910269021987915 0.25668570399284363 0.0
3.1838724613189697 0.25397706031799316 0.0
1.398239254951477 0.2614254057407379 0.0
3.201760768890381 0.7385746240615845 0.0
3.8017609119415283 0.7385746240615845 0.0
4.39177942276001 0.7466779351234436 0.0
0.25301694869995117 0.7458874583244324 0.0
2.7258167266845703 0.7600342631340027 0.0
0.84163498878479 0.2263137847185135 0.0
0.22429518401622772 0.22429518401622772 0.0
2.7605957984924316 0.22504857182502747 0.0
1.8330284357070923 0.2150011658668518 0.0
0.2192869633436203 0.5323538780212402 0.0
4.7908525466918945 0.5038931369781494 0.0
2.466000556945801 0.5376454591751099 0.0
3.7061264514923096 0.17723728716373444 0.0
3.3929696083068848 0.20266839861869812 0.0
1.4905184507369995 0.7937026619911194 0.0
1.2104878425598145 0.20361483097076416 0.0
3.9895122051239014 0.7963851690292358 0.0
3.389512300491333 0.7963851690292358 0.0
0.5652223825454712 0.5070380568504333 0.0
0.44509074091911316 0.19716571271419525 0.0
2.1318352222442627 0.5042122602462769 0.0
1.548349142074585 0.4954715371131897 0.0
3.050636053085327 0.5004673004150391 0.0
0.9511125087738037 0.498258113861084 0.0
3.651650905609131 0.5045284628868103 0.0
4.248488903045654 0.4980509281158447 0.0
1.1537858247756958 0.49593159556388855 0.0
4.050199031829834 0.49993085861206055 0.0
3.464722156524658 0.509624183177948 0.0
1.749653697013855 0.5001751780509949 0.0
2.851828098297119 0.5057260394096375 0.0
2.359710216522217 0.1888567954301834 0.0
2.0499017238616943 0.8199846148490906 0.0
0.6430503129959106 0.8181284070014954 0.0
4.560274600982666 0.1724673956632614 0.0
4.55863094329834 0.8299665451049805 0.0
2.321284055709839 0.8242537379264832 0.0
4.815218925476074 0.8345447778701782 0.0
4.837246894836426 0.16590170562267303 0.0
0.9682294130325317 0.8331464529037476 0.0
1.730908751487732 0.827606201171875 0.0
4.220076560974121 0.17516615986824036 0.0
3.02066969871521 0.18326662480831146 0.0
1.5634372234344482 0.17044226825237274 0.0
3.035303831100464 0.8294908404350281 0.0
3.627507209777832 0.8360387086868286 0.0
4.2312469482421875 0.8315803408622742 0.0
4.618130683898926 0.5361976027488708 0.0
0.40311703085899353 0.8369210362434387 0.0
1.1473191976547241 0.8458209037780762 0.0
4.052680969238281 0.15417908132076263 0.0
2.020958423614502 0.6394158005714417 0.0
0.662188708782196 0.6447370648384094 0.0
4.5115838050842285 0.3538685142993927 0.0
1.0221220254898071 0.15309639275074005 0.0
0.3837882876396179 0.5515117049217224 0.0
3.548090934753418 0.15800617635250092 0.0
1.4348299503326416 0.6465393304824829 0.0
3.765170097351074 0.3534606993198395 0.0
3.3348300457000732 0.3534606993198395 0.0
1.2546738386154175 0.36384353041648865 0.0
3.945326089859009 0.636156439781189 0.0
3.3412928581237793 0.637225866317749 0.0
2.1904795169830322 0.17066854238510132 0.0
0.16392111778259277 0.38331863284111023 0.0
2.87723445892334 0.8265392184257507 0.0
4.8459792137146 0.6499902606010437 0.0
4.845625400543213 0.34837812185287476 0.0
2.771622896194458 0.38129922747612 0.0
4.5222978591918945 0.6578375697135925 0.0
2.604464530944824 0.8240283727645874 0.0
1.8544400930404663 0.3751189708709717 0.0
0.8566747903823853 0.38255012035369873 0.0
2.2932615280151367 0.5369129776954651 0.0
2.620572805404663 0.6496497392654419 0.0
0.7172287106513977 0.1490369737148285 0.0
0.1410960853099823 0.8303417563438416 0.0
1.7142322063446045 0.142862930893898 0.0
2.6314175128936768 0.14492936432361603 0.0
1.9832650423049927 0.1408119648694992 0.0
2.445650577545166 0.370038241147995 0.0
2.885042667388916 0.1455758661031723 0.0
0.13937503099441528 0.6546638011932373 0.0
0.9110832810401917 0.6349053978919983 0.0
3.088575839996338 0.3613528311252594 0.0
4.296638011932373 0.3563385307788849 0.0
1.1930090188980103 0.6355591416358948 0.0
1.788455843925476 0.6387236714363098 0.0
4.006990909576416 0.3644408583641052 0.0
1.4459187984466553 0.39242905378341675 0.0
4.354081153869629 0.6075709462165833 0.0
3.7540812492370605 0.6075709462165833 0.0
3.1591691970825195 0.6018876433372498 0.0
2.7615907192230225 0.6205627918243408 0.0
2.36276912689209 0.6735464930534363 0.0
1.3681535720825195 0.8630191683769226 0.0
3.8318464756011963 0.1369808316230774 0.0
3.275517463684082 0.10712132602930069 0.0
0.5630941987037659 0.12814241647720337 0.0
1.3237862586975098 0.10638008266687393 0.0
3.2733232975006104 0.8705052733421326 0.0
3.8733232021331787 0.8705052733421326 0.0
2.0396511554718018 0.38928428292274475 0.0
2.2168734073638916 0.8508136868476868 0.0
0.5163488388061523 0.3409615159034729 0.0
0.6547463536262512 0.3955095112323761 0.0
1.9480526447296143 0.8710126876831055 0.0
4.689375877380371 0.13700176775455475 0.0
4.698264122009277 0.8675068616867065 0.0
0.7578787803649902 0.8698469996452332 0.0
2.479548454284668 0.13692785799503326 0.0
2.4562506675720215 0.8735422492027283 0.0
2.171211004257202 0.3573116958141327 0.0
3.5117530822753906 0.853193998336792 0.0
4.107914924621582 0.8658969402313232 0.0
2.640726327896118 0.354434996843338 0.0
4.346996307373047 0.1279495507478714 0.0
0.3128283619880676 0.11246757209300995 0.0
0.136248379945755 0.12152919173240662 0.0
4.453908443450928 0.8629162907600403 0.0
1.6064813137054443 0.8679171800613403 0.0
0.3380795121192932 0.6626779437065125 0.0
0.5102446675300598 0.875635027885437 0.0
0.7425088882446289 0.2989330589771271 0.0
3.1349449157714844 0.10448489338159561 0.0
1.3287748098373413 0.6181886196136475 0.0
3.871795415878296 0.38215625286102295 0.0
3.229135036468506 0.3810797333717346 0.0
0.28971707820892334 0.8759857416152954 0.0
0.9214505553245544 0.11992674320936203 0.0
1.9219478368759155 0.6237660050392151 0.0
1.530794620513916 0.29603153467178345 0.0
3.072223663330078 0.7044162750244141 0.0
3.6722235679626465 0.7044162750244141 0.0
[...]
POINT_DATA 715
SCALARS Psi double
LOOKUP_TABLE default
0.0
0.0
1.0
1.0
1.0
1.0
1.0
1.0
1.0
1.0
1.0
1.0
1.0
1.0
1.0
1.0
1.0
1.0
1.0
1.0
1.0
1.0
1.0
1.0
1.0
1.0
1.0
1.0
1.0
1.0
1.0
1.0
1.0
1.0
1.0
1.0
1.0
1.0
1.0
1.0
1.0
1.0
1.0
1.0
1.0
1.0
1.0
1.0
1.0
1.0
1.0
1.0
1.0
0.9192723191485418
0.8656287106050499
0.7644646976554946
0.6281403164256057
0.4707911673599924
0.31230863215795235
0.17396667153885328
0.07135856377747175
0.018791476326653872
0.0
0.0
0.0
0.0
0.0
0.0
0.0
0.0
0.0
0.0
0.0
0.0
0.0
0.0
0.0
0.0
0.0
0.0
0.0
0.0
0.0
0.0
0.0
0.0
0.0
0.0
0.0
0.0
0.0
0.0
0.0
0.0
0.0
0.0
0.0
0.0
0.0
0.0
0.0
0.0
0.0
0.0
-0.0
0.0
0.0
0.0
0.0
0.0
0.0
0.02734899915273604
0.10769486380527926
0.2092304898265144
0.31087388811873296
0.41246448877077985
0.5108190840448793
0.6026379286361602
0.678450756592026
0.6416408095859505
0.5300522753796935
0.5435740030655088
0.5008398004736809
0.49392727996811114
0.46920402202582884
0.47135407558813247
0.5098809317550326
0.32040584957341744
0.30760195469618234
0.7747325547666033
0.766252673578107
0.22684611535336946
0.22292882432113753
0.24523856776148367
0.2272456306985492
0.25485015622627677
0.7932097199870821
0.7913983048265589
0.7886565376093246
0.7978144881956921
0.7598828792656586
0.7861044871288648
0.17649315288167197
0.854288307115794
0.1568381552268965
0.14395015318078755
0.13907357781195456
0.8816036555639803
0.8776151892257353
0.8762373106341946
0.09112806076258319
0.12178187972685102
0.12271314028901813
0.13540864256055518
0.8697425836889944
0.8639841976705301
0.8691842313706208
0.7934730831789049
0.9003827955441369
0.1105969712456839
0.11127158311642
0.09549749786669355
0.08207229951126047
0.4645686002008494
0.47966188308955626
0.5728689066435166
0.039846669880325696
0.06245143594710627
0.9299308170892241
0.06977764881766686
0.9264531125732182
0.9270755177983703
0.49545184391968355
0.07117600330671708
0.5150440081824406
0.5012667384258772
0.507154885857818
0.5098580616586067
0.5012246043889869
0.48467056115977264
0.5069240086717847
0.490345361208551
0.5121853294623674
0.5076076894260325
0.5194525984396176
0.05686157967280801
0.9536719573750848
0.9590466652234038
0.03670462708526451
0.9537091987213446
0.9593844693650131
0.9424342008692359
0.0281708407994798
0.9639120662499585
0.9568504066352288
0.040065809140008846
0.05188893788231046
0.04071449842230684
0.9655007136089733
0.9616771974206834
0.9585068249421196
0.5403269290824595
0.9786719988547689
0.9709313512239358
0.029557339376016796
0.7348440333567944
0.7344490092916358
0.24381625112055913
0.036797381774355355
0.5292889723009307
0.028897234126802836
0.7488815556717351
0.25074185452456077
0.2557997745049206
0.2870041957305314
0.7174594635313227
0.7247420341373663
0.04385071512847466
0.29479711868607755
0.964557670959812
0.7147109529726343
0.22731427830744402
0.31146230608120506
0.7434659662091889
0.9599038448808144
0.2988442778753074
0.3223061891898915
0.5705913144163632
0.7548384941071954
0.03726362919476535
0.8225965637407531
0.02541676495796591
0.026931043293310263
0.024813357658937725
0.29327969217302596
0.026025986383050155
0.5837991171308563
0.7316684845571279
0.2751829707638138
0.25187835565746247
0.7337933352303673
0.7331550062886861
0.26876858777760876
0.3295342086386769
0.6670911452062245
0.672967585386595
0.6742326557477853
0.7098104930911446
0.7865274837472048
0.9792073066475526
0.017541314574376507
0.0018422780730261614
0.02126356679672538
0.0011085218570666576
0.9815730867211173
0.9825028523813742
0.3227670146476718
0.9760864911836588
0.24963477875443757
0.334485024299544
0.9853661613899911
0.019568114708170943
0.9789054038416829
0.9849577081288204
0.022958296254971325
0.9841628988964134
0.2723799044271576
0.9700326583901637
0.9804495628031498
0.26986269323000545
0.0057023161544386275
0.006011567622653355
0.022590015676742858
0.9775070593636375
0.9812527348281538
0.6942327427811469
0.9922287885478062
0.1999825359459551
0.0030259347464858775
0.7056973575076231
0.2965794122455525
0.3027730902277853
1.0187569708485777
0.02183789900506374
0.7096514052229331
0.1811817731160468
0.8303779941748901
0.8189315404876213
0.8157785891600093
1.005760447586996
0.6891742981413731
0.004111153577825186
0.9947938423662218
0.9944038538969192
0.15506251326529383
0.32390167926262325
0.18208073043641512
0.9957613863693501
0.003638922981317111
0.8691804479878389
0.2914620320417751
0.12750142448017535
0.3409447240849407
0.01144158698023923
0.16199700503311765
0.9905888014488883
0.9901146394180124
0.12510901153488785
0.18983683202520926
-0.001530573263714433
0.4412093176241302
-0.0034631631415967374
0.404765895596662
0.19219166129878196
-0.003723790310354758
0.0007540810366974473
0.4096344112068969
0.4281496457928384
0.4143687335486048
0.5925215580466004
0.5910647390162255
0.0030976721377578035
0.5523053791483951
0.0016026613613583764
0.6951271202737093
0.12824828476440242
0.6021281398099716
1.0011324562888737
0.8058684173595678
0.17322752841746697
0.8041728568147087
0.1820017033967962
0.2002009128915374
0.8170645104912926
0.9983422637914163
0.0016020092300047409
0.1309560924637916
0.8665078956878879
0.1330805274315024
0.33048556743726476
0.6187040770887258
0.8282971853968066
0.1050547511178038
0.40829122975806575
0.4167011758719262
0.6118341119451889
0.5986773836656588
0.5924005253115603
0.020349356892609093
0.6538768606734237
0.13745235607307896
0.866576679815848
0.8625771387709816
0.595844707128854
0.4077626018878034
0.42373489574340856
0.0037502514612904555
0.5896116325543416
0.8686754376067956
0.13315245733913342
1.0063442129921272
0.19435859688844392
0.5743088525330022
0.6579382331313917
0.4056395284052841
0.8627688312691704
0.5815139849303558
0.9992270359609179
0.4510884018642289
0.9884207331567819
0.9876204787226658
0.8964036026369216
0.8673410586396809
0.9584642500951709
0.0059544053928842254
0.4240145589750134
0.7088118366943916
0.5768210997166511
0.6825051548475433
0.3665917288154708
0.10387951831832552
-0.0013923842427184538
0.439623633760021
0.21144083538323108
0.8404347247816585
0.5647641565642127
0.4409609655292091
0.447020456380479
0.8513394148104972
0.8765841543031448
0.13728128762620553
0.12194320646897869
0.8688905395727986
0.40978702348668905
0.999094950768525
0.1423792222203082
0.905543999635005
0.9065932380978188
0.3577857858859466
0.9177882619220731
1.004050370497614
0.11331839884231897
0.14214514489305954
0.6770033371331537
0.3239536808147645
0.6784803726763085
0.6899758617421243
0.08425359180883248
0.6696961725701925
0.3343535313580634
0.3343214215376399
0.006507309865668964
0.4739887018105418
0.2624166198181989
0.7387079587371373
0.7660505177826359
0.33936553991285834
0.8773447649147231
0.6672668421005586
0.6625694258604338
0.6358160456285502
0.007602642338643373
0.007439748825108314
0.1300797921556054
0.8239045222668528
-0.003056443490720398
0.9160087371646232
0.9160207204589177
0.8483379476647875
-0.003373039582510521
-0.0027725561100945804
0.19014128697774157
0.3411223572531131
0.0002332064335918519
1.0004333920104225
0.3369806273977774
0.8875129834322704
1.0001840915637203
0.8834660671211312
0.11909430324062442
1.0057945907482053
-0.0014678317392785342
0.10245472286155739
0.9955032647800854
-0.00045420769509520864
0.3175207212754737
0.0005942999992309124
0.691491126762794
0.0036611922867803666
1.0019843582077506
1.0044130370685895
0.11146977637479133
0.49314586773630237
0.1502112350737517
0.9977876314435613
0.8864785056960772
0.9988941704658768
0.32784727336186004
0.9993680012176518
1.0027989108882374
0.13330720768443732
0.08770605800298356
6.887257735269643e-05
0.27953816303646917
0.6488245349134953
0.5856584342041364
0.4122343379739003
0.5628009844749037
1.0040014758825468
0.2555404093588881
0.5713382212259659
0.9999247829460531
0.0003471449062406615
-0.0013311051112694526
0.19362824459482625
0.4071578952842922
0.5786300955147372
-0.0018184051229256312
0.9213162081385063
1.0051980877119926
0.8847978493898925
0.09062420148912961
0.9148222149011123
0.9085052205315763
0.6345367861709447
0.07728969501314786
0.8961224252637289
-0.0018947003325955653
0.2790097487349591
0.002616737786710838
0.9331287059656505
0.06668281851578678
-0.0014805004696476372
0.5887076999881995
0.5399682997076529
1.0042458099363363
1.0154458961674886
1.0014976719655604
0.0012966925933157749
0.4335006758855785
0.6801315652759619
0.6879100019193012
0.6819951700983606
0.31916601892719954
0.31530405554672253
0.33045059419076567
0.9440114972215581
1.0353798198352935
0.997402948232637
0.9947358250296326
0.9634699331296686
0.6847742457314171
0.7573020889803234
-0.0019940031276870778
0.06494633782262983
0.7912229547816734
0.7063530034675015
0.23021998380774525
0.8726694696860595
0.08462269891958277
0.0754129378098647
0.7185940648494583
0.6204919294049532
0.4344607116265943
0.9980825971372964
1.001223424771151
0.7741343342829367
0.100352748356517
0.9312555922210101
0.21191363707050387
0.9524849305371537
0.053178319297250004
1.0003479490297642
0.0021542278588505296
0.36652236657121123
0.612772453579169
0.36133665296660733
0.8332910663756512
0.04144408043841565
0.591525619473848
0.3755277638462294
0.839261422030959
-0.0011643691685580852
-0.0035314082886084984
0.18944931462344197
0.17443207217956122
0.05619143336731784
0.10388537444885389
0.9457082695706055
0.8419397288750373
0.1592683206077089
0.8016615475138594
0.2033936931039278
0.9068477352652611
0.9033457353154419
0.9030118154447939
-0.0046452878443900315
0.941339354449797
0.3587280442634906
0.21645009124621373
1.000474106354935
0.16860077134061138
0.5588824723653644
0.7141237697161065
0.6110450780295739
0.6411090411119766
0.04318828040846763
0.9524883740317747
0.9515482080849824
0.05536846946341923
0.6962946628050842
-0.006149593784492468
1.0058535449546075
1.0036809228930714
0.0371864751030987
0.04155581971118846
0.8949654766359028
0.2519180707928108
0.9481759603837017
0.45044819919277274
0.8601910930240059
-0.00039827339781218953
0.6446059044629249
0.35473341452343166
0.3661427509871387
1.0011051188003572
-0.002085999586800382
0.5573406739382538
-0.007555495473336603
0.4132255825188877
0.06738795156232964
-0.0011412076028922808
0.23498969326455077
0.627185993004825
0.7203127411028543
0.7845240881432743
0.9501437178563757
0.047534342715160945
0.24110151906147542
0.18389049281042702
0.7698161857495969
1.0044795259771648
0.2331269126032004
0.06824585232317316
0.18443886220272668
0.0533783393451189
0.9304781442111705
0.046324542364745216
0.20948113220410414
0.7868104660390624
0.7912910130322238
0.8008808285302319
0.40765309510869735
1.0058780284630067
0.3697652489539212
0.918022786145647
-0.0012296946480214825
0.05079005422662546
0.039719856297265696
0.5974710016891608
0.06997981375958741
0.002096618623799147
0.05988051926100941
0.0815783609856434
0.4134554332426207
0.5617304883306228
0.029940983843525566
0.19396512123058976
-0.0018223291695457083
1.0000774899535305
0.9189171421410582
0.4338369874134618
0.5704143059444765
0.6276402760828331
0.9393179663999126
0.05112864142978517
0.05017763121087432
0.9982445789000061
0.03028660194410271
0.5060821397858676
0.3253800374205233
0.11870179503147789
-0.0008442944066349526
0.7918308264695397
0.9494501368465897
0.1443897768704468
0.12557088314189785
0.8544651393610462
1.0017359307751925
0.04472239392006364
0.9437541425484371
0.9431963264643675
0.44441551071543134
0.4429034969462342
1.0008048138776955
0.21416645210606275
0.3346772855658865
0.3742961687765243
0.0002634129633746831
0.9677864421901505
0.9687000670647544
0.2445560163141299
0.5972007245816667
0.832490923913809
0.8351334954162651
0.18890149854860955
0.831065746897592
0.2322047201870342
0.8821279490603313
0.8808278521970403
0.6196713625849508
0.8946666584059734
0.6198321473417132
0.05111905306676295
0.9505878385190979
0.393174092395016
0.6235192825300043
0.37605769118214494
-0.0072173991429880565
0.3126966539414966
0.056832041474600525
-0.0004948888517143241
0.5674250434375848
0.11528025993406593
0.22027152554402596
0.08609455173595572
0.8002948593812104
0.8744603648991492
0.9760497758907584
0.5856867028808364
0.0032583079927291907
0.40420689660511755
0.0776962599235872
0.9992156131915069
1.0002135216454122
-0.0009727117727160721
0.0579294473617411
0.9460170550843917
0.0003996658905523266
-0.004207611874782745
0.23327627694812977
0.7684108323264358
0.436865043235807
1.0028353009252031
0.2233418098488186
0.8200690241532431
0.19789676036380635
0.8092562961553877
0.19058165979004177
0.9787095456267624
0.0016308993739565728
0.40936325376041627
1.0008867096650396
0.9586277767714673
0.04335349906049156

SCALARS Omega double
LOOKUP_TABLE default
-7.676493077592792
-1.1845678172564578
8.57119946633362
15.920190860111362
36.51094129919644
-6.477755949986132
2.423298307575944
-4.464854532553781
-0.4279079162070755
1.9231911348553465
0.047866987798918396
-0.6375635054445471
0.48514311035916535
1.145679769275847
0.23178929339637172
0.8260811507604163
0.5442263247583286
0.7947276516574615
1.5524590474417894
-0.09259967513681107
1.4086374209633459
1.2416041329578862
-0.4234687344538085
0.4874330456483918
1.0665418885533366
1.0395093010534353
0.7590751093972434
0.24030946141491102
0.46011428913877717
1.4226764512031467
1.1090486607828767
0.16111298328945808
1.3307786170422138
0.8589821210878631
0.4158127892936906
1.1192446371311715
0.7528414298632823
0.3780237098198545
1.3144018700131488
0.676811691249087
1.3835823714000353
0.6989006737114978
0.43312891968060935
0.3535845694585666
0.9457605896310776
0.7277186373760948
2.1368081781283146
0.4660450166918912
-0.4729952440927857
2.171091548335214
0.8758955586502913
1.8718539821502536
9.589003765128409
-7.812486898705593
0.5545351443871097
2.8249477326069283
1.615474182955061
-0.1011167169330185
-1.1198350116853377
-2.6068030708326595
-3.270469022232905
-1.5765834921073634
-0.2582755079512076
-0.6616231922950169
-1.0634345621014574
-0.12784697291522473
-0.7088572572473517
-0.3782671400707675
-1.0659750768692826
-0.815872100420235
-0.30876011281111576
-0.7175067593445686
-0.4571860601584638
0.10084838796328496
-1.7684800416407627
-0.6469803296332857
0.38942959818887113
-1.497427476872708
-0.599964853433796
-0.29574339334589267
-1.116775624919788
-0.810773146160102
-0.42542818060550386
-1.1107768874171635
-0.8927305325141827
-1.4274805130600692
-0.16192729949466858
-0.5566824050074242
-0.9770720782994143
-1.0930678032910321
-0.7441388845858823
0.6955548223770528
-1.4016553513594892
-1.2298112082071724
0.2118858744172825
-0.852504109299915
-1.1179988424247855
-0.16130023679758723
-0.5566576248156972
-1.526366899761352
-1.5310013328986976
-0.3936832101852487
-1.9063840048980323
-0.4861035314708044
-2.0723651356497754
-0.49888483681465534
-0.14004157412646603
-2.0695307027031595
-1.9109720628574602
-0.8190366717435964
0.7511208980846651
-4.592711351208768
2.6458078253351163
0.31204026582246724
-0.025410725768511427
-0.8569634352989108
1.649775698239597
-5.88924286864669
-2.34035280839438
-42.6083736702438
-0.512630749330417
0.5132471009946171
0.09619461645974473
-0.09025713251348791
-0.30302750196414263
-0.24329588453431286
0.14281324364455383
-0.37597569673679176
-1.9367500509725868
3.1271755160410666
2.850397590420825
-2.9084125608778058
-2.917420379277875
-2.614600191143976
-2.8301513086805934
-2.0461497629867056
3.114714183530866
3.1110802550345933
3.0603107470351367
3.104721603238709
2.316827387778225
3.109338807877476
-3.487859059022569
3.948304847805782
-2.5858949228491936
-4.127488451627145
-4.088868845994709
5.215666493173345
4.357126869549977
4.150300571962633
-4.795636508124063
-4.406916301693293
-4.301802088337377
-4.097094739977293
4.286302923492984
4.09014018953668
4.328394038274357
1.9686960540878846
4.6250060368471875
-3.9675054050400123
-1.7028386259137234
-4.720201088202972
-5.067201208849628
-1.4216155732331412
-0.21036566236546417
0.7524783225801647
-6.282075970449611
-5.454999110165535
5.059574145716031
-5.152588313355985
5.265683815036026
5.06578095680909
-1.2638774002698778
-4.899315584521528
0.2104101371551818
0.13343161292147857
0.1123250212821328
-0.17118404021336328
0.02635677504376214
-0.1830168279516872
0.06306335542199955
-0.11337825365585066
0.14570970731248836
0.19089967711683065
0.23809213100271232
-5.623510558092726
5.393020276474629
7.33290476383895
-5.7742821851557515
5.872189097352048
5.881057508492794
6.150847243415768
-5.375909897685364
5.6431863231385515
5.2663190234254165
-5.584116000081506
-5.487257131239495
-6.39447691111273
6.506850134173393
5.651190406845346
5.776905188757716
0.36004781115976975
13.251944313545234
5.604147058682376
-5.547652956772645
2.4263442746233403
2.266721055487777
-2.6270769983237385
-5.438025242547054
-2.3408377706208414
-5.917663610869616
2.7002337426006076
-2.5923705099414507
-2.5151116075375253
-1.8803683414374386
2.19376260553573
2.3484738509687624
-5.5845262614827975
0.08634152882416864
6.0529019658317225
1.9676368544088338
-2.456684309550737
-1.8623386269682378
2.5024270355489326
5.625088835331954
-1.9985002433102117
-1.2682134210716005
0.7300852689110532
2.6552103048682842
-6.1096793429696605
-1.8664287449762893
-6.156589378294527
-6.12060932214704
-6.289173580860433
-2.0869796166897436
-6.1821186882834205
-4.517978416037472
2.48620508909538
-2.2827732848551867
-2.5836880659414514
2.5620771809114724
2.453449396012333
-2.4132446186240197
-1.5449029708775166
1.6516855626965021
1.7556632046669784
1.7860641491687785
2.1681154203562283
3.0449868590247515
5.7117851529061525
-6.466840445075448
-7.4805869413993396
-6.641171066798028
-8.339518140425275
6.2637578402446925
6.837757767051483
-1.7459987946557196
6.673671632210383
-0.913395483134744
-1.006574587761055
6.575241280310446
-5.349198951958787
7.965791937030843
6.0077696816480435
-6.12642835149303
5.596755925983086
-2.336357144267546
5.621675500934262
7.016309117111243
-2.334535888241836
-8.328184801895619
-10.849652977044187
-8.80522428118453
6.562948346102185
5.7616230794137175
-1.0358370364075637
7.101093945093907
-2.1676943598521836
-7.827870809559265
2.2305721848845668
-2.0875912342341922
-1.996730629842138
23.70270314883014
-6.213786647116643
2.1906614516202074
-3.4600740500493097
3.6604650102659404
3.422250737996303
3.4174532885951683
7.468207456241488
1.6257197647185901
-8.224784048564388
8.344748271679492
6.824456343586837
-1.4502073001104572
-1.7592237813018297
-3.4877061648153087
6.6818149978379
-6.61985997395041
4.142319989963833
-2.133126748364979
-3.760167487966236
-0.44594734702874333
-6.260581300033713
3.282475813338921
7.462511446137444
5.575224625760001
-4.294097517630125
-3.3834320137904688
-9.953006668010941
-0.5283513208946854
-8.054943221002333
-1.4071290527148004
-3.2687864409188334
-8.56820781939332
-7.796708145827765
-0.9137657380599482
-0.6537320061871196
-0.827622628416609
0.7747328184284139
1.0140656605624558
-7.175625676335855
1.4465333620136318
-9.080697389315448
2.015906306426742
-4.1897436965157935
-4.132542358131945
9.504798610241656
3.3054997185884547
-3.1138652168275414
3.302533735886706
-3.4380888601800206
-3.22687528948791
3.462446217296555
6.706042979911677
-6.335022129609633
-4.251264718467137
4.155265767459842
-4.137803764005109
-1.284374090397951
1.1475060415834863
6.081346438229252
-9.763616340065017
-0.7762395474255852
-0.7318829910028737
1.139572059336975
1.0060382571013486
0.8790238627184764
-6.701693877274887
-8.023431510895197
-3.907791019258602
4.192085547576366
4.080404172068277
0.9901386746580413
-0.9225549876046611
-0.7062531689424671
-8.734571417726123
0.9760863113794734
4.410288743556626
-4.13449633830059
9.369481028467774
-3.2728047015467796
-0.44045910767466484
0.20465424469500484
-0.9429424293284249
3.9862406243351933
0.24054155028132734
8.36503717741933
-0.4310873724318024
6.579253171591744
6.128983414919647
4.54352965219298
5.498856069183929
2.6760176685440666
-7.546099128384665
-1.288325196430184
2.134512337466308
0.822927940331847
1.8584125277877406
-2.1895706990279855
-4.601184774893993
-10.00444854704244
-0.6253994979038473
0.7356198490614844
3.6743059626784422
0.7364954377717506
-0.5755301823171953
-0.48742514850276475
5.485937136943456
4.903899288186197
-4.065520113616825
-4.203720214789927