# vtk DataFile Version 1.0
2D Simulation C++
ASCII
DATASET UNSTRUCTURED_GRID
FIELD FieldData 1
NODES 1 2 int
715 1308

POINTS 715 double
0.0 0.0 0.0
5.0 0.0 0.0
5.0 1.0 0.0
0.0 1.0 0.0
0.10000000149011612 1.0 0.0
0.20000000298023224 1.0 0.0
0.30000001192092896 1.0 0.0
0.4000000059604645 1.0 0.0
0.5 1.0 0.0
0.6000000238418579 1.0 0.0
0.699999988079071 1.0 0.0
0.800000011920929 1.0 0.0
0.8999999761581421 1.0 0.0
1.0 1.0 0.0
1.100000023841858 1.0 0.0
1.2000000476837158 1.0 0.0
1.2999999523162842 1.0 0.0
1.399999976158142 1.0 0.0
1.5 1.0 0.0
1.600000023841858 1.0 0.0
1.7000000476837158 1.0 0.0
1.7999999523162842 1.0 0.0
1.899999976158142 1.0 0.0
2.0 1.0 0.0
2.0999999046325684 1.0 0.0
2.200000047683716 1.0 0.0
2.299999952316284 1.0 0.0
2.4000000953674316 1.0 0.0
2.5 1.0 0.0
2.5999999046325684 1.0 0.0
2.700000047683716 1.0 0.0
2.799999952316284 1.0 0.0
2.9000000953674316 1.0 0.0
3.0 1.0 0.0
3.0999999046325684 1.0 0.0
3.200000047683716 1.0 0.0
3.299999952316284 1.0 0.0
3.4000000953674316 1.0 0.0
3.5 1.0 0.0
3.5999999046325684 1.0 0.0
3.700000047683716 1.0 0.0
3.799999952316284 1.0 0.0
3.9000000953674316 1.0 0.0
4.0 1.0 0.0
4.099999904632568 1.0 0.0
4.199999809265137 1.0 0.0
4.300000190734863 1.0 0.0
4.400000095367432 1.0 0.0
4.5 1.0 0.0
4.599999904632568 1.0 0.0
4.699999809265137 1.0 0.0
4.800000190734863 1.0 0.0
4.900000095367432 1.0 0.0
5.0 0.8999999761581421 0.0
5.0 0.800000011920929 0.0
5.0 0.699999988079071 0.0
5.0 0.6000000238418579 0.0
5.0 0.5 0.0
5.0 0.4000000059604645 0.0
5.0 0.30000001192092896 0.0
5.0 0.20000000298023224 0.0
5.0 0.10000000149011612 0.0
4.900000095367432 0.0 0.0
4.800000190734863 0.0 0.0
4.699999809265137 0.0 0.0
4.599999904632568 0.0 0.0
4.5 0.0 0.0
4.400000095367432 0.0 0.0
4.300000190734863 0.0 0.0
4.199999809265137 0.0 0.0
4.099999904632568 0.0 0.0
4.0 0.0 0.0
3.9000000953674316 0.0 0.0
3.799999952316284 0.0 0.0
3.700000047683716 0.0 0.0
3.5999999046325684 0.0 0.0
3.5 0.0 0.0
3.4000000953674316 0.0 0.0
3.299999952316284 0.0 0.0
3.200000047683716 0.0 0.0
3.0999999046325684 0.0 0.0
3.0 0.0 0.0
2.9000000953674316 0.0 0.0
2.799999952316284 0.0 0.0
2.700000047683716 0.0 0.0
2.5999999046325684 0.0 0.0
2.5 0.0 0.0
2.4000000953674316 0.0 0.0
2.299999952316284 0.0 0.0
2.200000047683716 0.0 0.0
2.0999999046325684 0.0 0.0
2.0 0.0 0.0
1.899999976158142 0.0 0.0
1.7999999523162842 0.0 0.0
1.7000000476837158 0.0 0.0
1.600000023841858 0.0 0.0
1.5 0.0 0.0
1.399999976158142 0.0 0.0
1.2999999523162842 0.0 0.0
1.2000000476837158 0.0 0.0
1.100000023841858 0.0 0.0
1.0 0.0 0.0
0.8999999761581421 0.0 0.0
0.800000011920929 0.0 0.0
0.699999988079071 0.0 0.0
0.6000000238418579 0.0 0.0
0.5 0.0 0.0
0.4000000059604645 0.0 0.0
0.30000001192092896 0.0 0.0
0.20000000298023224 0.0 0.0
0.10000000149011612 0.0 0.0
0.0 0.10000000149011612 0.0
0.0 0.20000000298023224 0.0
0.0 0.30000001192092896 0.0
0.0 0.4000000059604645 0.0
0.0 0.5 0.0
0.0 0.6000000238418579 0.0
0.0 0.699999988079071 0.0
0.0 0.800000011920929 0.0
0.0 0.8999999761581421 0.0
0.7496038675308228 0.5164291858673096 0.0
1.3451675176620483 0.5190238952636719 0.0
1.9462687969207764 0.4963642954826355 0.0
4.456614971160889 0.5060901641845703 0.0
3.864220380783081 0.4866538345813751 0.0
3.249823808670044 0.482722669839859 0.0
2.6500000953674316 0.5 0.0
0.3810288906097412 0.399004191160202 0.0
2.308779239654541 0.3797946870326996 0.0
1.0499999523162842 0.6625000238418579 0.0
1.644740104675293 0.6598879098892212 0.0
4.150000095367432 0.3375000059604645 0.0
3.555316209793091 0.3343118131160736 0.0
2.9446933269500732 0.3401789665222168 0.0
1.6342840194702148 0.3290160894393921 0.0
1.0591840744018555 0.33908534049987793 0.0
2.9654481410980225 0.6753292679786682 0.0
3.5534629821777344 0.6835107207298279 0.0
4.153462886810303 0.6835107207298279 0.0
2.2139804363250732 0.6805098056793213 0.0
0.4914395809173584 0.6739721894264221 0.0
4.691666603088379 0.6916666626930237 0.0
4.691666603088379 0.3083333373069763 0.0
2.4872219562530518 0.7236665487289429 0.0
0.6240421533584595 0.2677222192287445 0.0
2.0697431564331055 0.2657754421234131 0.0
2.5389034748077393 0.26082900166511536 0.0
0.8147311806678772 0.7450684309005737 0.0
1.2897310256958008 0.743314266204834 0.0
1.8853894472122192 0.7450258731842041 0.0
4.382374286651611 0.23655959963798523 0.0
3.910269021987915 0.25668570399284363 0.0
3.1838724613189697 0.25397706031799316 0.0
1.398239254951477 0.2614254057407379 0.0
3.201760768890381 0.7385746240615845 0.0
3.8017609119415283 0.7385746240615845 0.0
4.39177942276001 0.7466779351234436 0.0
0.25301694869995117 0.7458874583244324 0.0
2.7258167266845703 0.7600342631340027 0.0
0.84163498878479 0.2263137847185135 0.0
0.22429518401622772 0.22429518401622772 0.0
2.7605957984924316 0.22504857182502747 0.0
1.8330284357070923 0.2150011658668518 0.0
0.2192869633436203 0.5323538780212402 0.0
4.7908525466918945 0.5038931369781494 0.0
2.466000556945801 0.5376454591751099 0.0
3.7061264514923096 0.17723728716373444 0.0
3.3929696083068848 0.20266839861869812 0.0
1.4905184507369995 0.7937026619911194 0.0
1.2104878425598145 0.20361483097076416 0.0
3.9895122051239014 0.7963851690292358 0.0
3.389512300491333 0.7963851690292358 0.0
0.5652223825454712 0.5070380568504333 0.0
0.44509074091911316 0.19716571271419525 0.0
2.1318352222442627 0.5042122602462769 0.0
1.548349142074585 0.4954715371131897 0.0
3.050636053085327 0.5004673004150391 0.0
0.9511125087738037 0.498258113861084 0.0
3.651650905609131 0.5045284628868103 0.0
4.248488903045654 0.4980509281158447 0.0
1.1537858247756958 0.49593159556388855 0.0
4.050199031829834 0.49993085861206055 0.0
3.464722156524658 0.509624183177948 0.0
1.749653697013855 0.5001751780509949 0.0
2.851828098297119 0.5057260394096375 0.0
2.359710216522217 0.1888567954301834 0.0
2.0499017238616943 0.8199846148490906 0.0
0.6430503129959106 0.8181284070014954 0.0
4.560274600982666 0.1724673956632614 0.0
4.55863094329834 0.8299665451049805 0.0
2.321284055709839 0.8242537379264832 0.0
4.815218925476074 0.8345447778701782 0.0
4.837246894836426 0.16590170562267303 0.0
0.9682294130325317 0.8331464529037476 0.0
1.730908751487732 0.827606201171875 0.0
4.220076560974121 0.17516615986824036 0.0
3.02066969871521 0.18326662480831146 0.0
1.5634372234344482 0.17044226825237274 0.0
3.035303831100464 0.8294908404350281 0.0
3.627507209777832 0.8360387086868286 0.0
4.2312469482421875 0.8315803408622742 0.0
4.618130683898926 0.5361976027488708 0.0
0.40311703085899353 0.8369210362434387 0.0
1.1473191976547241 0.8458209037780762 0.0
4.052680969238281 0.15417908132076263 0.0
2.020958423614502 0.6394158005714417 0.0
0.662188708782196 0.6447370648384094 0.0
4.5115838050842285 0.3538685142993927 0.0
1.0221220254898071 0.15309639275074005 0.0
0.3837882876396179 0.5515117049217224 0.0
3.548090934753418 0.15800617635250092 0.0
1.4348299503326416 0.6465393304824829 0.0
3.765170097351074 0.3534606993198395 0.0
3.3348300457000732 0.3534606993198395 0.0
1.2546738386154175 0.36384353041648865 0.0
3.945326089859009 0.636156439781189 0.0
3.3412928581237793 0.637225866317749 0.0
2.1904795169830322 0.17066854238510132 0.0
0.16392111778259277 0.38331863284111023 0.0
2.87723445892334 0.8265392184257507 0.0
4.8459792137146 0.6499902606010437 0.0
4.845625400543213 0.34837812185287476 0.0
2.771622896194458 0.38129922747612 0.0
4.5222978591918945 0.6578375697135925 0.0
2.604464530944824 0.8240283727645874 0.0
1.8544400930404663 0.3751189708709717 0.0
0.8566747903823853 0.38255012035369873 0.0
2.2932615280151367 0.5369129776954651 0.0
2.620572805404663 0.6496497392654419 0.0
0.7172287106513977 0.1490369737148285 0.0
0.1410960853099823 0.8303417563438416 0.0
1.7142322063446045 0.142862930893898 0.0
2.6314175128936768 0.14492936432361603 0.0
1.9832650423049927 0.1408119648694992 0.0
2.445650577545166 0.370038241147995 0.0
2.885042667388916 0.1455758661031723 0.0
0.13937503099441528 0.6546638011932373 0.0
0.9110832810401917 0.6349053978919983 0.0
3.088575839996338 0.3613528311252594 0.0
4.296638011932373 0.3563385307788849 0.0
1.1930090188980103 0.6355591416358948 0.0
1.788455843925476 0.6387236714363098 0.0
4.006990909576416 0.3644408583641052 0.0
1.4459187984466553 0.39242905378341675 0.0
4.354081153869629 0.6075709462165833 0.0
3.7540812492370605 0.6075709462165833 0.0
3.1591691970825195 0.6018876433372498 0.0
2.7615907192230225 0.6205627918243408 0.0
2.36276912689209 0.6735464930534363 0.0
1.3681535720825195 0.8630191683769226 0.0
3.8318464756011963 0.1369808316230774 0.0
3.275517463684082 0.10712132602930069 0.0
0.5630941987037659 0.12814241647720337 0.0
1.3237862586975098 0.10638008266687393 0.0
3.2733232975006104 0.8705052733421326 0.0
3.8733232021331787 0.8705052733421326 0.0
2.0396511554718018 0.38928428292274475 0.0
2.2168734073638916 0.8508136868476868 0.0
0.5163488388061523 0.3409615159034729 0.0
0.6547463536262512 0.3955095112323761 0.0
1.9480526447296143 0.8710126876831055 0.0
4.689375877380371 0.13700176775455475 0.0
4.698264122009277 0.8675068616867065 0.0
0.7578787803649902 0.8698469996452332 0.0
2.479548454284668 0.13692785799503326 0.0
2.4562506675720215 0.8735422492027283 0.0
2.171211004257202 0.3573116958141327 0.0
3.5117530822753906 0.853193998336792 0.0
4.107914924621582 0.8658969402313232 0.0
2.640726327896118 0.354434996843338 0.0
4.346996307373047 0.1279495507478714 0.0
0.3128283619880676 0.11246757209300995 0.0
0.136248379945755 0.12152919173240662 0.0
4.453908443450928 0.8629162907600403 0.0
1.6064813137054443 0.8679171800613403 0.0
0.3380795121192932 0.6626779437065125 0.0
0.5102446675300598 0.875635027885437 0.0
0.7425088882446289 0.2989330589771271 0.0
3.1349449157714844 0.10448489338159561 0.0
1.3287748098373413 0.6181886196136475 0.0
3.871795415878296 0.38215625286102295 0.0
3.229135036468506 0.3810797333717346 0.0
0.28971707820892334 0.8759857416152954 0.0
0.9214505553245544 0.11992674320936203 0.0
1.9219478368759155 0.6237660050392151 0.0
1.530794620513916 0.29603153467178345 0.0
3.072223663330078 0.7044162750244141 0.0
3.6722235679626465 0.7044162750244141 0.0
[...]
POINT_DATA 715
SCALARS Psi double
LOOKUP_TABLE default
0.0
0.0
1.0
1.0
1.0
1.0
1.0
1.0
1.0
1.0
1.0
1.0
1.0
1.0
1.0
1.0
1.0
1.0
1.0
1.0
1.0
1.0
1.0
1.0
1.0
1.0
1.0
1.0
1.0
1.0
1.0
1.0
1.0
1.0
1.0
1.0
1.0
1.0
1.0
1.0
1.0
1.0
1.0
1.0
1.0
1.0
1.0
1.0
1.0
1.0
1.0
1.0
1.0
0.9191919835984167
0.8653539446704022
0.7640908933058369
0.6279782913166672
0.47106419664308613
0.312975530716352
0.17470866749637917
0.07183476492912355
0.018940940139832434
0.0
0.0
0.0
0.0
0.0
0.0
0.0
0.0
0.0
0.0
0.0
0.0
0.0
0.0
0.0
0.0
0.0
0.0
0.0
0.0
0.0
0.0
0.0
0.0
0.0
0.0
0.0
0.0
0.0
0.0
0.0
0.0
0.0
0.0
0.0
0.0
0.0
0.0
0.0
0.0
0.0
0.0
-0.0
0.0
0.0
0.0
0.0
0.0
0.0
0.027348949929215993
0.10769474823061023
0.20923029912924657
0.31087363569064724
0.41246419458407385
0.5108187678220869
0.6026375778188182
0.67845036187617
0.6416405816987858
0.5300301385877051
0.5435122666512671
0.5008425003418047
0.49390652634061544
0.46889125663518955
0.47129351367099187
0.5104523104542386
0.32040409877988313
0.3083230916248364
0.7746996937210596
0.7659080598387744
0.22715840770699033
0.22301604952172455
0.2458936525796246
0.22747254237718678
0.2548369440681483
0.7930674264547363
0.7907280876998825
0.7880079505064946
0.797560829477934
0.7598752514852466
0.785623748252041
0.17717401586287682
0.8542404005817867
0.15683244872919577
0.14444109794063129
0.1397383004385822
0.8815901139812887
0.8775547410831315
0.875913340831556
0.09145443320358575
0.12196973780290553
0.12297336868207281
0.13547571737122283
0.8694130195102256
0.8634463085000891
0.8687432889502732
0.7934714471687119
0.900357182291302
0.11058682065662354
0.11127152598655624
0.09599156590573198
0.08231411106006352
0.46456793643127914
0.47989991570259943
0.5732280737183492
0.03989290018524076
0.06253102783278801
0.9298427058904591
0.06977870255753225
0.9261145545250699
0.9267747427715759
0.4954414864233926
0.07117554930315084
0.5151644270050475
0.5012005278751823
0.5073401809338581
0.5098267282100977
0.5008024744787177
0.4845330653353323
0.5068901772978223
0.4900744342057159
0.5118127542531827
0.5075268582508532
0.5198821452029436
0.05714517948190585
0.9535467163639917
0.959044619767035
0.03689036210322433
0.9535318624327258
0.9593311007633505
0.9422239478252659
0.02842861703988165
0.9639084825491294
0.9567551351606126
0.04018803133549968
0.052086347618631734
0.040764632408176446
0.9654464340447995
0.9615054706025099
0.9583203137161647
0.5402747979538348
0.9786719416167096
0.9709310809230663
0.029626947429778498
0.7344640339499143
0.7344328464362343
0.24438289877525518
0.03679449162635745
0.5292855050108571
0.028923659017580282
0.7486940159720781
0.2508235383383309
0.25597129677338953
0.2870220428706027
0.7167616104600631
0.7241944158062565
0.044060205239103686
0.29479686946351413
0.9645400751570394
0.714273033998951
0.22817471026555045
0.31228469840234513
0.742947389629349
0.9598939372163328
0.29918054323851234
0.3222844534330845
0.5707706562105266
0.754907608316465
0.037261944358633114
0.822595956816584
0.025474377571652357
0.0270966733431359
0.024913989134519823
0.29411011340742443
0.026148594381598625
0.5837986202886312
0.7316404744962484
0.275626292900809
0.2522656487882371
0.7337345122824538
0.7327578868479948
0.26894597524384783
0.32960195901749184
0.6666011881041616
0.6722844415170672
0.6739555922930106
0.7099271772011299
0.7864359979962535
0.9792137005767467
0.01755974864373485
0.0018272605364991368
0.02126370242105101
0.0011009118264885566
0.9815192577729772
0.9824278290766498
0.3232209631808725
0.9760473441612514
0.24963039573000725
0.334472934002517
0.985347422176525
0.019664880669215123
0.9788255800772915
0.9849572619954429
0.02307242963201639
0.984153738437437
0.27300961486362124
0.9699018411440283
0.9803545572771725
0.2707457411077753
0.005708479044063132
0.006011771094607655
0.02259000350875285
0.9774275699564442
0.9812472230004152
0.6942294540082096
0.9922300435783448
0.199970475604775
0.003019230876271899
0.7055883229828213
0.2966362683209197
0.30300335215273216
1.0187571648630698
0.021836291789773792
0.7092685512082672
0.18133202809655624
0.8301309744134168
0.8183011315019011
0.8152133781451368
1.0057811706650477
0.6891508348361993
0.0041020774352096305
0.9947793571365405
0.9944090888996692
0.15506204550726482
0.3245037593934854
0.18253536646251248
0.9957669756429182
0.0036325725299977724
0.8690992906200794
0.29187539463272216
0.12749035558276342
0.3409441117802913
0.011486616831997561
0.16199684802940764
0.9905913887232937
0.9901140393868981
0.12564535132376706
0.19016095085732287
-0.0015335179546399284
0.4419072351194566
-0.0034990558602306155
0.4047655917575004
0.1929123033669619
-0.0037394556107321303
0.0007359991634357339
0.4096291417627125
0.428640824662916
0.4141498064255264
0.5924840552134983
0.5908581196547075
0.0030949449363602013
0.5523196076317498
0.001597798568058428
0.6952663269410898
0.12890960514242286
0.6021269519011201
1.0011591691070432
0.80522916574916
0.17322853017362114
0.803567463248139
0.18214194573953021
0.2002951655152506
0.8168061448521069
0.9983397658157664
0.001584299745729427
0.1311112690278464
0.8663933997512394
0.13328766800817476
0.33046249253290855
0.6184688520023656
0.8278015775567042
0.10582221863425084
0.40835672039232207
0.4166755065022849
0.6119422604530629
0.5980973360208682
0.5919460891380433
0.020347024478419573
0.6538764600967651
0.13748609970084838
0.8661581820457875
0.8620221075572718
0.5957848284588305
0.407640406644189
0.42392057703542907
0.0037201790951226117
0.5893781507920327
0.8686479464938387
0.13343338153360715
1.0063732944955284
0.1951046037223162
0.5742922905222166
0.657926117615457
0.40594155989202385
0.86243831145963
0.5814853171310147
0.9992591427495477
0.45162005697714686
0.9883767758617541
0.9875793838279893
0.896185414527942
0.8673300185058592
0.9584201517103361
0.006029173067957098
0.42401007674838675
0.7088606763194086
0.5767096013112127
0.682262456679749
0.3672424270019215
0.10430708844047376
-0.0013922011336841757
0.43968655603537976
0.21144054620721228
0.8401120238633267
0.5646608365825283
0.44067836067233324
0.4468770436511277
0.851330752289005
0.8765685782401147
0.13764387976053943
0.12229451721468154
0.86856376622612
0.41027483071207743
0.999107476209992
0.1423762187315393
0.9051441174392665
0.9061991851257835
0.35850540582808926
0.9176933227928185
1.0040525516184742
0.11375464764896705
0.14269893423680846
0.6764503578463518
0.324067030155489
0.6777846418685416
0.6898135991170612
0.08441718964189507
0.6694607415771152
0.33427349431437364
0.33430226734989893
0.006507394037480748
0.4746063897329764
0.2624724645191696
0.7379953825357313
0.7656136867895795
0.33957176787516263
0.8773160570433857
0.6666527805076691
0.6619517632450346
0.6354231759627642
0.007627248528615903
0.0074414396770224114
0.13075044736563463
0.8234278828807338
-0.003062555455483788
0.9160058009062035
0.915884532235557
0.8478847389095522
-0.003392012416312525
-0.002797600918742345
0.19013977927564382
0.3414778340440453
0.00018903767445690694
1.0004370873552884
0.33696304502782887
0.8871134524568939
1.0001973409175295
0.883450297773983
0.11939028165659496
1.0058084525633268
-0.0015130768046754557
0.1029659021490746
0.9954856240058222
-0.00047673730938318154
0.3175173163657159
0.0005954155322465872
0.6910699590550013
0.0036700471952564296
1.0020097324113875
1.0044374665621538
0.11157224774284541
0.49314553992173016
0.15077652038820627
0.9978083312190633
0.8863914637404136
0.9988931820126647
0.328511263740076
0.9993666431133102
1.002799523109746
0.1332993138004828
0.08780016202891516
6.42438289646408e-05
0.28014102464806107
0.6489289411585313
0.5856509579007676
0.41222681670787087
0.5623162498553825
1.0040055459072617
0.25554018036393644
0.5711405407686753
0.9999262649938129
0.0003337445959358898
-0.0013448287237843412
0.19361195379774404
0.40715605079599226
0.579038390811404
-0.00183549003624553
0.9209902958159011
1.0052229707679334
0.8847959568942859
0.09070561525783459
0.9146268455088145
0.9081012102127505
0.6348210814332149
0.07766920078995995
0.8957746709733201
-0.0018922542722295712
0.27991659708539063
0.0026102206248104446
0.9331121105660217
0.06682421339355259
-0.0014899800916195478
0.5883364993047215
0.5399665927581352
1.0042605698803633
1.0154462391706003
1.0015151505035609
0.0012907458220738207
0.4335954573252301
0.6800982036765586
0.6878640964805025
0.6816537369162796
0.31940147491278437
0.31546510931417016
0.33096978680708533
0.9439812913890301
1.0353800083821356
0.9974012725389898
0.9947176672676549
0.9634680068517504
0.6847687238068332
0.7572953989051752
-0.0020220591708403905
0.06494459837691989
0.7912458087876053
0.7059546578169579
0.23108648356195668
0.8726693121555916
0.08502570868277033
0.07559733251170055
0.7184980989927462
0.6198795241693532
0.43443668653521533
0.9981030409378195
1.001245395060823
0.7735837048054607
0.10034529149761
0.9310968295535021
0.21273343499223843
0.952470457578785
0.05348509079849869
1.0003616748078963
0.002154496721472721
0.36697296627442105
0.6125854470770377
0.36216917870971216
0.8332870693886839
0.041616160311448776
0.5915467553319295
0.3755273648181136
0.8389173463826494
-0.0011791325980273935
-0.0035611169072327915
0.18944915095092532
0.1749368319231542
0.056252698919692555
0.1042634193220765
0.9457019951940195
0.841889223491074
0.15950022270483222
0.8016364623404072
0.2037583282317183
0.9068469420926456
0.9029282153130247
0.90260971610784
-0.004672924487915145
0.9411825174435158
0.35872010163112567
0.2169711638196462
1.0005002843254596
0.1689802281340909
0.5587598689211549
0.7137113502076077
0.6105459417692559
0.6410888237735218
0.043203164983449636
0.9523403004065063
0.9513187179922032
0.05569722130179556
0.6962937617373106
-0.006159477432302881
1.00589453923879
1.0037134398411949
0.03726323487851826
0.0419620642358667
0.8947170169392457
0.2519107187440921
0.9479835120429505
0.4507272008261887
0.8600414654344077
-0.00039830525118774796
0.6444835748076452
0.35464853659816
0.3662098205855201
1.0011168857282151
-0.002099647142179477
0.5573403630945524
-0.007555242235105979
0.4132335181867794
0.0673840932371562
-0.0011409044759503205
0.2353498969491657
0.626936267118115
0.7203123081527343
0.7840981890707621
0.9501279076761596
0.04762170639969845
0.24168487760483015
0.18433596525429385
0.7697927793647736
1.0045111267464066
0.23311663933013985
0.0685435154099478
0.18494310494324065
0.053620589893938767
0.9303603810449972
0.04647944118706124
0.20958878600935923
0.7862377116374283
0.790613875067819
0.8005409909144886
0.40762691932784684
1.0058802058436906
0.3700814546995821
0.9177935147383411
-0.0012471937921312859
0.05093838546394565
0.03995370084281162
0.597793120960686
0.07022982041677951
0.0020972282775928394
0.05988043799773397
0.08157835613195175
0.41416483815028937
0.5614812079548271
0.030099123033800853
0.19474256173732066
-0.0018223168292422836
1.0000950275067542
0.9189086328830022
0.43383918265927174
0.5698648676483927
0.6273085310569804
0.9392685377078971
0.05119835685610598
0.05025438599040834
0.9982451673569165
0.030368245911611885
0.506081660825271
0.32613838669016476
0.1186955802505861
-0.0008683550246351467
0.7918478269616556
0.949448385281076
0.1445536060324
0.12569681384920411
0.8542940323308006
1.0017385129164023
0.04472596849602738
0.9435462994674136
0.9429347012339289
0.44461304584295464
0.44288814071975535
1.0008219208856313
0.21415068139394033
0.33467701814146844
0.3744663174810291
0.0002660004304560238
0.9676363731247173
0.9685653841608153
0.2445552475261585
0.5966088382936567
0.8318972017771953
0.8346315368962626
0.18891587931203896
0.8310347836383357
0.23290587414527064
0.8816449312699417
0.8803672948770958
0.6196403240742043
0.8945087109306971
0.6195622107851576
0.051258975019264144
0.950582682720307
0.3935068381992824
0.6234687534746196
0.37604261335001105
-0.007267026278061748
0.3126931426576954
0.056831388178904436
-0.0005144136306190064
0.5671251922587243
0.11542835744530791
0.22025535799723273
0.0860944882995367
0.8002765728488086
0.8744377261370867
0.9760389291519426
0.5856239225281242
0.003258195484687231
0.4045687540946732
0.07768815571321082
0.9992268865472957
1.0002271801111893
-0.0009893818368348455
0.05792948389562956
0.9458060891998323
0.00039262088209778126
-0.00426093696232439
0.23345985625036783
0.7683284787367178
0.4368639947479089
1.0028621561600743
0.22409263581415592
0.8196688490287969
0.1981688645406069
0.8091450973583
0.19075138018660812
0.9787148400007528
0.0016406908355543611
0.41014157220614483
1.000887757168881
0.9585919406734795
0.04353744270276391

SCALARS Omega double
LOOKUP_TABLE default
-7.676486862849503
-1.1877155347730335
8.566136694870151
15.920218676190009
36.51101822567032
-6.477718906998086
2.423293765000787
-4.465146210630174
-0.4280493141545163
1.9230171190258405
0.047608511575153216
-0.6379388387696943
0.48535847268530574
1.1454298895577255
0.23068895939511372
0.8260296283162372
0.5393331191472703
0.7935506474892566
1.5493718011756572
-0.09620956174013544
1.4067285650478043
1.2419039482919034
-0.43314028384189357
0.4882284061788994
1.0681932342778384
1.0420027798228226
0.7573557477983273
0.24131260830994625
0.4592582049869374
1.4222156500493768
1.108507758987321
0.15815170195835043
1.3306185663268346
0.8566399438621094
0.4158204074551111
1.1221083791748077
0.7530318791304305
0.37857739048024913
1.3192124114508166
0.6785350587396305
1.3891796009346575
0.7019609020070223
0.4324995140506118
0.3546801605857653
0.9490470148173445
0.7301387171258084
2.14709602145776
0.46702675279847167
-0.47918995533826775
2.179618248051603
0.8805452871954277
1.8796678698160463
9.594256584500796
-7.794745141811456
0.544376515308616
2.8003202505039186
1.6011441872764138
-0.09819300867749758
-1.0956393247848426
-2.5829167672762496
-3.2514402743701907
-1.5932073827175048
-0.2629643541113831
-0.6696321288628587
-1.0698011568193917
-0.12423558412285267
-0.7136240341613628
-0.3774122277705792
-1.0679291151297448
-0.8165718097416746
-0.3076407046135423
-0.7165072100025812
-0.4565050586852012
0.10485068810282984
-1.7706669014735763
-0.6458665151207544
0.3918797429990052
-1.5000441776866893
-0.5999807515416495
-0.2932220727163781
-1.1217399724746528
-0.8130945205662636
-0.4266437579236081
-1.1162429239447305
-0.8974534313429137
-1.4359375668864407
-0.15717500172536
-0.5558731489653174
-0.9833656462367445
-1.100144662215112
-0.7457944666632509
0.7007230146881986
-1.406699348442847
-1.233474653409987
0.2163636044139239
-0.8534669633366508
-1.1175095375890405
-0.1586081692002724
-0.555085376586402
-1.5257685230909266
-1.530781702821937
-0.3932646757441687
-1.9063965451026446
-0.48623429077987246
-2.0723839725108166
-0.4989775361173809
-0.14020242709895445
-2.069536512444078
-1.9110005374932013
-0.8190327163637582
0.7511170631005121
-4.592715578833227
2.6458067910391563
0.3120375490948817
-0.02541853743642547
-0.8569632096120083
1.6497616762270435
-5.889220712469239
-2.340298237658824
-42.60841136545437
-0.5130559812213042
0.5117164106949504
0.09082544548561663
-0.0911257097219806
-0.3064528802838882
-0.24076438482606044
0.15508031130635208
-0.37581021250664143
-1.8958455040827038
3.1261916093590485
2.8198015080135015
-2.873040404823556
-2.8927270382043457
-2.572875134141836
-2.808034871507096
-2.0461953322810857
3.088815934205126
3.0697889185266853
3.0152352100220448
3.071789173044283
2.3163599082199813
3.068171579496312
-3.4440418036597547
3.933031103198025
-2.5859546534913274
-4.095719120659089
-4.057843648119377
5.215352628428424
4.356101011113191
4.126635340896245
-4.7770321322841145
-4.384636248080404
-4.286347339471565
-4.0914888061063115
4.264726963061911
4.065513980032927
4.30242644613875
1.968530607300459
4.615198355049827
-3.9678636571665615
-1.702822481639831
-4.705195792264875
-5.055098276822441
-1.4215165553346545
-0.2039258844657653
0.7486069846395829
-6.285937567264605
-5.4551182773323506
5.061433815515461
-5.154170716539366
5.264961132886029
5.062718920768923
-1.2637995585779198
-4.899176944586027
0.20376069403194147
0.1330005534084811
0.11722392080660848
-0.1720382007381593
0.015304555345642217
-0.18385854095901094
0.06242533703591057
-0.11843570804047254
0.13386162308237262
0.18622359520498158
0.2465227250859095
-5.632204698559708
5.401807648900355
7.33360601382645
-5.790154400195654
5.883907509942139
5.887678210667525
6.1526211511816875
-5.401596740619249
5.645010573474075
5.280718793583443
-5.593510311167607
-5.495185877110955
-6.4008882184103575
6.516819712845541
5.670617826465315
5.790896672553867
0.3475441607434465
13.25246793896539
5.608943643721419
-5.560504121243018
2.3847879033922137
2.265997346143057
-2.5797790534276186
-5.43806726627991
-2.340640652451012
-5.925077742889872
2.686753702254191
-2.5655775101629907
-2.4896182332405017
-1.8771499877941953
2.1494016354218264
2.3099178916676157
-5.595186289053617
0.08635786332470126
6.059781006408797
1.9255971108563112
-2.4052249600462217
-1.8176329047177284
2.4543368155323564
5.627145335871925
-1.968509536605551
-1.2686567469896417
0.7171688061933095
2.6340060820926148
-6.109011926392938
-1.8665954509944893
-6.170220785185283
-6.147517171310558
-6.312060346161718
-2.0397339700366426
-6.209653646169115
-4.517874955408717
2.4851535625521395
-2.25136866074465
-2.5446401615240872
2.5596660739495203
2.4182537443950065
-2.381244869264531
-1.5359494876493243
1.6123619771170166
1.7169799713195797
1.7585000332369713
2.1495911346070233
3.0211296432594095
5.725008543919048
-6.4819966104126
-7.500800756419992
-6.640766952659708
-8.344809045852275
6.289159021547043
6.871577351192434
-1.711709224415566
6.687898762010797
-0.9132915557091739
-1.0065261129803567
6.6048750952733695
-5.379849742328711
7.993921139091592
6.008731473617412
-6.163160624420811
5.602533539038413
-2.2923926931911955
5.643941133581774
7.047036749291901
-2.2823598986972695
-8.365123728902839
-10.849584071128726
-8.805214272230259
6.592048837315396
5.784575546786547
-1.0359729519863228
7.101968664988828
-2.167963964099941
-7.858592912155145
2.2247203250580125
-2.0620790717869744
-1.9730412801349582
23.703059581216767
-6.213230577883865
2.1538932427873747
-3.445822670923734
3.6347690160541557
3.3857232508216097
3.3761410595107786
7.476471219771766
1.6248590344947775
-8.237542264115959
8.389389839028198
6.850198684776593
-1.4501571932905202
-1.7164027543754747
-3.4502878890592723
6.684005051707646
-6.640780200700042
4.125620925032759
-2.0939211412635537
-3.760813578200807
-0.44584984029028707
-6.291800894875242
3.282469316765751
7.495041982371745
5.576051011956293
-4.264311452123196
-3.3542423798883974
-9.953449599124808
-0.5032142269240033
-8.112160033384026
-1.4071089781238089
-3.2257863329291623
-8.5839253630351
-7.81362747698223
-0.8998395643055839
-0.6302901394377834
-0.8234155708357609
0.773517359476533
1.0000437263481055
-7.218093636852958
1.4274580208296164
-9.119621609611647
1.9987168640639221
-4.159681088726796
-4.13242944622117
9.557706567005319
3.2655000696560914
-3.1132504465135127
3.2650726729284703
-3.4147304140854353
-3.201879437326493
3.4401506570702236
6.704094179110844
-6.363904627302956
-4.229230294827249
4.148511350312999
-4.1200554817934325
-1.2848691566624935
1.1175659651042145
6.0035439989066415
-9.677193953334209
-0.7662801708226435
-0.7322989177498948
1.1281094588737606
0.9786479347762941
0.852767563828123
-6.701437031069941
-8.02332308585714
-3.9050801031768128
4.166272240618398
4.052339804934019
0.9880376855286094
-0.9121005029708135
-0.6913211265796083
-8.799749958639245
0.9541369255102661
4.410547220906917
-4.105995767629769
9.38902674438799
-3.225854538348897
-0.4407934329277624
0.2042305837729038
-0.9198576380311977
3.9597488585641942
0.2397164165040552
8.385949301538504
-0.41448715481192605
6.617876126707931
6.159572565190022
4.53172612839006
5.498403492545973
2.727660897078099
-7.606582543133585
-1.288056974156501
2.1120618081662967
0.8010586422806443
1.8216728669077276
-2.1273317433097025
-4.586093565449572
-10.004384854139028
-0.6141807083034382
0.735655277751483
3.6436161844025903
0.7321949389905086
-0.5753461452558408
-0.48455008005122335
5.485489469050673
4.903872074063657
-4.045958732424585
-4.174108192060644