# vtk DataFile Version 1.0
2D Simulation C++
ASCII
DATASET UNSTRUCTURED_GRID
FIELD FieldData 1
NODES 1 2 int
715 1308

POINTS 715 double
0.0 0.0 0.0
5.0 0.0 0.0
5.0 1.0 0.0
0.0 1.0 0.0
0.10000000149011612 1.0 0.0
0.20000000298023224 1.0 0.0
0.30000001192092896 1.0 0.0
0.4000000059604645 1.0 0.0
0.5 1.0 0.0
0.6000000238418579 1.0 0.0
0.699999988079071 1.0 0.0
0.800000011920929 1.0 0.0
0.8999999761581421 1.0 0.0
1.0 1.0 0.0
1.100000023841858 1.0 0.0
1.2000000476837158 1.0 0.0
1.2999999523162842 1.0 0.0
1.399999976158142 1.0 0.0
1.5 1.0 0.0
1.600000023841858 1.0 0.0
1.7000000476837158 1.0 0.0
1.7999999523162842 1.0 0.0
1.899999976158142 1.0 0.0
2.0 1.0 0.0
2.0999999046325684 1.0 0.0
2.200000047683716 1.0 0.0
2.299999952316284 1.0 0.0
2.4000000953674316 1.0 0.0
2.5 1.0 0.0
2.5999999046325684 1.0 0.0
2.700000047683716 1.0 0.0
2.799999952316284 1.0 0.0
2.9000000953674316 1.0 0.0
3.0 1.0 0.0
3.0999999046325684 1.0 0.0
3.200000047683716 1.0 0.0
3.299999952316284 1.0 0.0
3.4000000953674316 1.0 0.0
3.5 1.0 0.0
3.5999999046325684 1.0 0.0
3.700000047683716 1.0 0.0
3.799999952316284 1.0 0.0
3.9000000953674316 1.0 0.0
4.0 1.0 0.0
4.099999904632568 1.0 0.0
4.199999809265137 1.0 0.0
4.300000190734863 1.0 0.0
4.400000095367432 1.0 0.0
4.5 1.0 0.0
4.599999904632568 1.0 0.0
4.699999809265137 1.0 0.0
4.800000190734863 1.0 0.0
4.900000095367432 1.0 0.0
5.0 0.8999999761581421 0.0
5.0 0.800000011920929 0.0
5.0 0.699999988079071 0.0
5.0 0.6000000238418579 0.0
5.0 0.5 0.0
5.0 0.4000000059604645 0.0
5.0 0.30000001192092896 0.0
5.0 0.20000000298023224 0.0
5.0 0.10000000149011612 0.0
4.900000095367432 0.0 0.0
4.800000190734863 0.0 0.0
4.699999809265137 0.0 0.0
4.599999904632568 0.0 0.0
4.5 0.0 0.0
4.400000095367432 0.0 0.0
4.300000190734863 0.0 0.0
4.199999809265137 0.0 0.0
4.099999904632568 0.0 0.0
4.0 0.0 0.0
3.9000000953674316 0.0 0.0
3.799999952316284 0.0 0.0
3.700000047683716 0.0 0.0
3.5999999046325684 0.0 0.0
3.5 0.0 0.0
3.4000000953674316 0.0 0.0
3.299999952316284 0.0 0.0
3.200000047683716 0.0 0.0
3.0999999046325684 0.0 0.0
3.0 0.0 0.0
2.9000000953674316 0.0 0.0
2.799999952316284 0.0 0.0
2.700000047683716 0.0 0.0
2.5999999046325684 0.0 0.0
2.5 0.0 0.0
2.4000000953674316 0.0 0.0
2.299999952316284 0.0 0.0
2.200000047683716 0.0 0.0
2.0999999046325684 0.0 0.0
2.0 0.0 0.0
1.899999976158142 0.0 0.0
1.7999999523162842 0.0 0.0
1.7000000476837158 0.0 0.0
1.600000023841858 0.0 0.0
1.5 0.0 0.0
1.399999976158142 0.0 0.0
1.2999999523162842 0.0 0.0
1.2000000476837158 0.0 0.0
1.100000023841858 0.0 0.0
1.0 0.0 0.0
0.8999999761581421 0.0 0.0
0.800000011920929 0.0 0.0
0.699999988079071 0.0 0.0
0.6000000238418579 0.0 0.0
0.5 0.0 0.0
0.4000000059604645 0.0 0.0
0.30000001192092896 0.0 0.0
0.20000000298023224 0.0 0.0
0.10000000149011612 0.0 0.0
0.0 0.10000000149011612 0.0
0.0 0.20000000298023224 0.0
0.0 0.30000001192092896 0.0
0.0 0.4000000059604645 0.0
0.0 0.5 0.0
0.0 0.6000000238418579 0.0
0.0 0.699999988079071 0.0
0.0 0.800000011920929 0.0
0.0 0.8999999761581421 0.0
0.7496038675308228 0.5164291858673096 0.0
1.3451675176620483 0.5190238952636719 0.0
1.9462687969207764 0.4963642954826355 0.0
4.456614971160889 0.5060901641845703 0.0
3.864220380783081 0.4866538345813751 0.0
3.249823808670044 0.482722669839859 0.0
2.6500000953674316 0.5 0.0
0.3810288906097412 0.399004191160202 0.0
2.308779239654541 0.3797946870326996 0.0
1.0499999523162842 0.6625000238418579 0.0
1.644740104675293 0.6598879098892212 0.0
4.150000095367432 0.3375000059604645 0.0
3.555316209793091 0.3343118131160736 0.0
2.9446933269500732 0.3401789665222168 0.0
1.6342840194702148 0.3290160894393921 0.0
1.0591840744018555 0.33908534049987793 0.0
2.9654481410980225 0.6753292679786682 0.0
3.5534629821777344 0.6835107207298279 0.0
4.153462886810303 0.6835107207298279 0.0
2.2139804363250732 0.6805098056793213 0.0
0.4914395809173584 0.6739721894264221 0.0
4.691666603088379 0.6916666626930237 0.0
4.691666603088379 0.3083333373069763 0.0
2.4872219562530518 0.7236665487289429 0.0
0.6240421533584595 0.2677222192287445 0.0
2.0697431564331055 0.2657754421234131 0.0
2.5389034748077393 0.26082900166511536 0.0
0.8147311806678772 0.7450684309005737 0.0
1.2897310256958008 0.743314266204834 0.0
1.8853894472122192 0.7450258731842041 0.0
4.382374286651611 0.23655959963798523 0.0
3.910269021987915 0.25668570399284363 0.0
3.1838724613189697 0.25397706031799316 0.0
1.398239254951477 0.2614254057407379 0.0
3.201760768890381 0.7385746240615845 0.0
3.8017609119415283 0.7385746240615845 0.0
4.39177942276001 0.7466779351234436 0.0
0.25301694869995117 0.7458874583244324 0.0
2.7258167266845703 0.7600342631340027 0.0
0.84163498878479 0.2263137847185135 0.0
0.22429518401622772 0.22429518401622772 0.0
2.7605957984924316 0.22504857182502747 0.0
1.8330284357070923 0.2150011658668518 0.0
0.2192869633436203 0.5323538780212402 0.0
4.7908525466918945 0.5038931369781494 0.0
2.466000556945801 0.5376454591751099 0.0
3.7061264514923096 0.17723728716373444 0.0
3.3929696083068848 0.20266839861869812 0.0
1.4905184507369995 0.7937026619911194 0.0
1.2104878425598145 0.20361483097076416 0.0
3.9895122051239014 0.7963851690292358 0.0
3.389512300491333 0.7963851690292358 0.0
0.5652223825454712 0.5070380568504333 0.0
0.44509074091911316 0.19716571271419525 0.0
2.1318352222442627 0.5042122602462769 0.0
1.548349142074585 0.4954715371131897 0.0
3.050636053085327 0.5004673004150391 0.0
0.9511125087738037 0.498258113861084 0.0
3.651650905609131 0.5045284628868103 0.0
4.248488903045654 0.4980509281158447 0.0
1.1537858247756958 0.49593159556388855 0.0
4.050199031829834 0.49993085861206055 0.0
3.464722156524658 0.509624183177948 0.0
1.749653697013855 0.5001751780509949 0.0
2.851828098297119 0.5057260394096375 0.0
2.359710216522217 0.1888567954301834 0.0
2.0499017238616943 0.8199846148490906 0.0
0.6430503129959106 0.8181284070014954 0.0
4.560274600982666 0.1724673956632614 0.0
4.55863094329834 0.8299665451049805 0.0
2.321284055709839 0.8242537379264832 0.0
4.815218925476074 0.8345447778701782 0.0
4.837246894836426 0.16590170562267303 0.0
0.9682294130325317 0.8331464529037476 0.0
1.730908751487732 0.827606201171875 0.0
4.220076560974121 0.17516615986824036 0.0
3.02066969871521 0.18326662480831146 0.0
1.5634372234344482 0.17044226825237274 0.0
3.035303831100464 0.8294908404350281 0.0
3.627507209777832 0.8360387086868286 0.0
4.2312469482421875 0.8315803408622742 0.0
4.618130683898926 0.5361976027488708 0.0
0.40311703085899353 0.8369210362434387 0.0
1.1473191976547241 0.8458209037780762 0.0
4.052680969238281 0.15417908132076263 0.0
2.020958423614502 0.6394158005714417 0.0
0.662188708782196 0.6447370648384094 0.0
4.5115838050842285 0.3538685142993927 0.0
1.0221220254898071 0.15309639275074005 0.0
0.3837882876396179 0.5515117049217224 0.0
3.548090934753418 0.15800617635250092 0.0
1.4348299503326416 0.6465393304824829 0.0
3.765170097351074 0.3534606993198395 0.0
3.3348300457000732 0.3534606993198395 0.0
1.2546738386154175 0.36384353041648865 0.0
3.945326089859009 0.636156439781189 0.0
3.3412928581237793 0.637225866317749 0.0
2.1904795169830322 0.17066854238510132 0.0
0.16392111778259277 0.38331863284111023 0.0
2.87723445892334 0.8265392184257507 0.0
4.8459792137146 0.6499902606010437 0.0
4.845625400543213 0.34837812185287476 0.0
2.771622896194458 0.38129922747612 0.0
4.5222978591918945 0.6578375697135925 0.0
2.604464530944824 0.8240283727645874 0.0
1.8544400930404663 0.3751189708709717 0.0
0.8566747903823853 0.38255012035369873 0.0
2.2932615280151367 0.5369129776954651 0.0
2.620572805404663 0.6496497392654419 0.0
0.7172287106513977 0.1490369737148285 0.0
0.1410960853099823 0.8303417563438416 0.0
1.7142322063446045 0.142862930893898 0.0
2.6314175128936768 0.14492936432361603 0.0
1.9832650423049927 0.1408119648694992 0.0
2.445650577545166 0.370038241147995 0.0
2.885042667388916 0.1455758661031723 0.0
0.13937503099441528 0.6546638011932373 0.0
0.9110832810401917 0.6349053978919983 0.0
3.088575839996338 0.3613528311252594 0.0
4.296638011932373 0.3563385307788849 0.0
1.1930090188980103 0.6355591416358948 0.0
1.788455843925476 0.6387236714363098 0.0
4.006990909576416 0.3644408583641052 0.0
1.4459187984466553 0.39242905378341675 0.0
4.354081153869629 0.6075709462165833 0.0
3.7540812492370605 0.6075709462165833 0.0
3.1591691970825195 0.6018876433372498 0.0
2.7615907192230225 0.6205627918243408 0.0
2.36276912689209 0.6735464930534363 0.0
1.3681535720825195 0.8630191683769226 0.0
3.8318464756011963 0.1369808316230774 0.0
3.275517463684082 0.10712132602930069 0.0
0.5630941987037659 0.12814241647720337 0.0
1.3237862586975098 0.10638008266687393 0.0
3.2733232975006104 0.8705052733421326 0.0
3.8733232021331787 0.8705052733421326 0.0
2.0396511554718018 0.38928428292274475 0.0
2.2168734073638916 0.8508136868476868 0.0
0.5163488388061523 0.3409615159034729 0.0
0.6547463536262512 0.3955095112323761 0.0
1.9480526447296143 0.8710126876831055 0.0
4.689375877380371 0.13700176775455475 0.0
4.698264122009277 0.8675068616867065 0.0
0.7578787803649902 0.8698469996452332 0.0
2.479548454284668 0.13692785799503326 0.0
2.4562506675720215 0.8735422492027283 0.0
2.171211004257202 0.3573116958141327 0.0
3.5117530822753906 0.853193998336792 0.0
4.107914924621582 0.8658969402313232 0.0
2.640726327896118 0.354434996843338 0.0
4.346996307373047 0.1279495507478714 0.0
0.3128283619880676 0.11246757209300995 0.0
0.136248379945755 0.12152919173240662 0.0
4.453908443450928 0.8629162907600403 0.0
1.6064813137054443 0.8679171800613403 0.0
0.3380795121192932 0.6626779437065125 0.0
0.5102446675300598 0.875635027885437 0.0
0.7425088882446289 0.2989330589771271 0.0
3.1349449157714844 0.10448489338159561 0.0
1.3287748098373413 0.6181886196136475 0.0
3.871795415878296 0.38215625286102295 0.0
3.229135036468506 0.3810797333717346 0.0
0.28971707820892334 0.8759857416152954 0.0
0.9214505553245544 0.11992674320936203 0.0
1.9219478368759155 0.6237660050392151 0.0
1.530794620513916 0.29603153467178345 0.0
3.072223663330078 0.7044162750244141 0.0
3.6722235679626465 0.7044162750244141 0.0
[...]
POINT_DATA 715
SCALARS Psi double
LOOKUP_TABLE default
0.0
0.0
1.0
1.0
1.0
1.0
1.0
1.0
1.0
1.0
1.0
1.0
1.0
1.0
1.0
1.0
1.0
1.0
1.0
1.0
1.0
1.0
1.0
1.0
1.0
1.0
1.0
1.0
1.0
1.0
1.0
1.0
1.0
1.0
1.0
1.0
1.0
1.0
1.0
1.0
1.0
1.0
1.0
1.0
1.0
1.0
1.0
1.0
1.0
1.0
1.0
1.0
1.0
0.9187730037815617
0.8639757320321059
0.7622947907638037
0.6273532347740503
0.47273028898449
0.3166864378425788
0.1787612931561786
0.07441543457914081
0.019744861255420493
0.0
0.0
0.0
0.0
0.0
0.0
0.0
0.0
0.0
0.0
0.0
0.0
0.0
0.0
0.0
0.0
0.0
0.0
0.0
0.0
0.0
0.0
0.0
0.0
0.0
0.0
0.0
0.0
0.0
0.0
0.0
0.0
0.0
0.0
0.0
0.0
0.0
0.0
0.0
0.0
0.0
0.0
-0.0
0.0
0.0
0.0
0.0
0.0
0.0
0.027347458969603018
0.10769068029027376
0.209223214130454
0.3108636488773326
0.4124520944412308
0.510806097526137
0.6026252192303355
0.6784388588988014
0.641634664706889
0.5298764608438674
0.5425987435957822
0.5008637791574426
0.4940754886880019
0.4683604280159541
0.470401071514711
0.512235955334121
0.3203594010270902
0.3120998284510779
0.7741407923432669
0.7625867468728311
0.22967453459894618
0.22411322462044575
0.24833383275797805
0.22926771974658325
0.2550556302112843
0.7911565706356197
0.7873542241742254
0.7847436835677852
0.7964306243609627
0.7597826386349548
0.7832079904948577
0.18087045050007422
0.8536866469356521
0.15676215534358223
0.14726621467560025
0.14289642268422398
0.8814876679212984
0.8762394801050571
0.8738173178625559
0.09339946825940333
0.12374411058750563
0.12410846306875775
0.13640847991870053
0.8671716334221249
0.8607824886731789
0.8664269180954026
0.793439949342222
0.8996703901074249
0.11054150444864783
0.11126596773473255
0.0981476789843056
0.08390486566561173
0.46454440149283105
0.48136204710821046
0.5745870779554827
0.040344595273745315
0.06300504048280174
0.9284024241435235
0.06997002009525698
0.9243440915422743
0.9250713025549488
0.4953271173089834
0.0711595669594258
0.5160164389247079
0.5003065567359605
0.5069821529255744
0.5096527905204394
0.499404366950345
0.4844200914978874
0.5065872015512167
0.4895952457131878
0.5101176477180821
0.506684083160432
0.5205393460314661
0.05865514746039116
0.9528943444361629
0.9589999192206112
0.03790109974048123
0.9525819953154214
0.9591271367658195
0.9411326954193416
0.02980814588287632
0.9639057430514412
0.9557467827845105
0.041057489483338136
0.05291161117942261
0.04132435087558634
0.96493357471771
0.9606249557050898
0.9573080770129606
0.5401740666267992
0.9786612743262761
0.9708716584663343
0.030214946593639238
0.7324814512304655
0.7343006229199903
0.24759218088553436
0.03678301667538079
0.5292234693755118
0.02913303259269969
0.7460581315257495
0.252349788632791
0.25686731422874
0.28757190856894854
0.7135571123548147
0.7209852358236901
0.04524949616455697
0.29478491017825525
0.9642360998633004
0.7121813624425222
0.2328730323494918
0.315401688209175
0.740309760695062
0.9597346064361577
0.30126910820750935
0.3222207270202501
0.5717561616797258
0.7543415770810049
0.03723213196206843
0.822583052456288
0.025959912518145285
0.0278966848879401
0.02552579881159412
0.29810910434817667
0.026675157969444127
0.5837821121405561
0.7313733082480068
0.27714943395591585
0.25489245740503635
0.7326041201880858
0.729766428144576
0.2710127973196278
0.3303449781799171
0.66423683404671
0.6692987420737482
0.671520310122613
0.7091952355511285
0.7858939922749774
0.9790403934679522
0.017765020931481457
0.001722155070202079
0.021256903492441765
0.0009909174083999267
0.9811475619302958
0.9820435249609301
0.32588847499833695
0.9759055345730686
0.249560481488053
0.33436130556783006
0.9851700810447934
0.020171226863751345
0.9783913818126271
0.9849322344065624
0.023669500283617955
0.984133077724102
0.2765293790382501
0.969196782406294
0.9798356328092229
0.274515835739592
0.005788716736435737
0.006014408409662185
0.022589596239331846
0.9769888272236561
0.9808914756952847
0.6941736786782211
0.9922264820105505
0.1998885697628396
0.002963352936082495
0.7037752639714562
0.29815232042475115
0.30379169800004774
1.0187628786436616
0.021809979158315163
0.7069430385690749
0.18278897563834656
0.8279663199670481
0.8152176747273481
0.8122985063384592
1.006011295261663
0.688978858060158
0.004080976822390675
0.9947165456814819
0.9943797418166211
0.15504351355719623
0.327833236776524
0.18529009241985073
0.9958852115820832
0.003613274037173467
0.8678308493778989
0.2944746080034604
0.1275444880728636
0.3409192225985058
0.011750072618574914
0.16199114721940233
0.9904935762188888
0.9901118108995729
0.12855020953891944
0.19237574673722466
-0.0016351712246432382
0.444779684525118
-0.003648874191764488
0.404751716622421
0.19582596758389814
-0.0038829719284250662
0.0006138398229634958
0.410497722353309
0.42977754920851496
0.41365336003197445
0.5920908164358274
0.5887842795531489
0.003095881854267083
0.5526490821245644
0.0016068321582578245
0.6953606976468326
0.13190128726220482
0.6020979838348098
1.0012898623844202
0.8020491548086162
0.17360314045054048
0.8003101244766608
0.18318334844802053
0.20159572844101256
0.8137671017272619
0.9983979456407905
0.0015102204395622647
0.13271329748571575
0.8644386093080422
0.1343138196099115
0.33048638206120445
0.6174112154638975
0.8253360201350225
0.10998229714326492
0.4086705193266815
0.4166635422866092
0.6109733187632969
0.5955045422746291
0.5901233381047293
0.020310076828031622
0.653863548119718
0.1381715109417844
0.8636139361471832
0.8592373462246
0.594847176306002
0.408178324141856
0.4239830727661289
0.0035988112821589155
0.5877251944963038
0.8679500143688695
0.1356932541704381
1.0066014361771984
0.19894115821526082
0.574151723183801
0.6578059106766133
0.40775338448760784
0.8606827709269594
0.5812907352474592
0.9994440053847624
0.4542687146721086
0.9881438913803945
0.9873165793582082
0.8938839010384457
0.8672347323367269
0.9581656224151645
0.006419507722873976
0.4239347352627525
0.7076550513869124
0.5762424016608558
0.6811893830547397
0.3708930573046543
0.1060796283293611
-0.0013886789641932235
0.4404689705999081
0.21142605347530083
0.8385660129986676
0.5632406145089569
0.4402728718818128
0.4460178224931233
0.8512381189229699
0.876408193672856
0.13912576436643012
0.12456437201360243
0.8660683955548465
0.4129876701236969
0.9991353886570097
0.14232455027910035
0.9030704271857445
0.9041188426417727
0.36091359257373506
0.9166463671906685
1.0040500014724727
0.11620131795923182
0.14572596034628754
0.6738161456799706
0.3250644498098183
0.6746383333876969
0.6877070415629903
0.08575358338251643
0.666758161905728
0.33480851064128997
0.3345578021908814
0.006509256032622177
0.4763908682316923
0.2633490480356528
0.7347012647819346
0.7626646002161446
0.3409025052427424
0.8767186921204458
0.6635718960237821
0.6592222956629948
0.6335407878149538
0.007717666848165779
0.00754690334579183
0.13438465882859654
0.821047824009247
-0.0031954063994405193
0.9159529296167396
0.9152958401435154
0.8455466265961294
-0.003548150871717152
-0.002969349613475122
0.19010212139111524
0.3436163799251208
-1.7692075897807973e-05
1.000478128363847
0.336852422701309
0.8850108003566903
1.0002563064419554
0.8831660220441551
0.12151317091582621
1.005985883073099
-0.0017797339627716848
0.10553013904312807
0.9953799790415171
-0.0005746899048550431
0.317862999178161
0.000601815453102807
0.6889830220061226
0.0037156078884602066
1.0021490213886988
1.0046020704335248
0.1124303668731134
0.4931321209843038
0.15393703407043777
0.9978448091186759
0.8858660599578142
0.9989268854594536
0.3321814158092146
0.9993536077095457
1.0028112390051758
0.13346548318921925
0.08868337856046181
7.057189094105989e-05
0.2834807505076143
0.6493177905349562
0.5855560266193739
0.4123040789589743
0.5606449110446433
1.0040985419343407
0.25553169191187364
0.5702871912540707
1.000016124658619
0.00025486188341522286
-0.0014242547401312044
0.19362207105501902
0.40711053331840225
0.5801877340141284
-0.0019176991407979518
0.9192462864300895
1.0054537627167144
0.8847609661265843
0.091647140643317
0.913128179304024
0.9060669392500138
0.6349871279543728
0.07971663216597344
0.8939920588829299
-0.0019038392049023718
0.28402407966334015
0.002591647480931039
0.9325716723626116
0.06805127066052374
-0.00156921559838736
0.58600802669996
0.5399274498214175
1.004355366832345
1.0154588048282793
1.0015954214041212
0.00128634931003243
0.43407898978364534
0.6797315119558331
0.6871082644038456
0.6787213946160072
0.32141639550160406
0.3173775656306145
0.3325806893698987
0.9437329688598095
1.0353863372543113
0.9973767451068088
0.9946185167466624
0.9633184876412446
0.6846907329774004
0.7569258239124542
-0.0021406070357731346
0.0649099235209371
0.7903398777776359
0.7040855924086122
0.2358315057469187
0.8726656212690888
0.0867396577162445
0.07692445512916352
0.7180743435309556
0.6174213518489172
0.4343127785810156
0.9981923924117839
1.0013596762378203
0.7707561384896462
0.10028472982489813
0.930377925885669
0.21617513583533643
0.9521280545565567
0.05497871078082803
1.0004174046742282
0.002152282779696627
0.3695938901503941
0.6118159318262183
0.36536458350540524
0.8332246052625112
0.04261078170436279
0.5918464907873575
0.3755092284555995
0.8359296942560842
-0.0012589083106888971
-0.003677721050029242
0.1894415106873058
0.17692311232009963
0.05669143967120593
0.10649638372584691
0.9456610696118266
0.84074482564659
0.1616366277292389
0.8013018725485561
0.20635439215584797
0.906832838012384
0.9007448725521751
0.9004494781960639
-0.004820683682987315
0.9400252830600446
0.35862070999555795
0.22003049374567385
1.0006089777884057
0.1713800292603467
0.5572028348472902
0.7117185384144439
0.6078354638912855
0.6409354686225817
0.04349542657409725
0.95133403287231
0.9501460061289371
0.057462334282660975
0.6962721945188388
-0.006298210442031451
1.0061178093362537
1.0038813431853568
0.03759752575435882
0.044153781569184244
0.8934428681367212
0.2518221193665218
0.9469657185513796
0.4523758352654703
0.8593330875641678
-0.0003990172500397179
0.6426750428433614
0.3553805112413788
0.3662862126435808
1.0012575245547501
-0.002205673604148813
0.557328076359311
-0.007550349989167302
0.4133240585877853
0.06747695380001685
-0.0011380806464692203
0.2367329294101252
0.6255635452910412
0.7203008433683505
0.781265286623307
0.9495584092467705
0.04843380482264682
0.24502342617721695
0.1870818959347011
0.76960215882816
1.0046754324276763
0.23302282406242186
0.07025321011939727
0.18788185994699902
0.05495973165333183
0.9287968492839261
0.04748450598700785
0.21082506337959192
0.7832960174543375
0.7873724986726942
0.797942421557548
0.4075396586024611
1.0058826976591209
0.3720631300510449
0.9164281047208879
-0.0013373677547698828
0.051558933702245895
0.04102921652021456
0.5979603012400656
0.07178162464781007
0.0021008378376564975
0.05987775124471011
0.08157248248992438
0.4173880155805847
0.5604754995677308
0.03080247500740704
0.19851486141684657
-0.0018216739166961795
1.0001637376970132
0.9188392040995647
0.43372548295944013
0.5677895389359066
0.624854401205395
0.938215317464171
0.051891698469547755
0.05064411471531706
0.9982283696294012
0.030971020113791062
0.5060638392190846
0.32993708094068847
0.11862979932797885
-0.0009766919878994162
0.7913208163992465
0.9494057017431332
0.14551488760170378
0.12703209878429142
0.8518811372406017
1.0017707225403996
0.04488412599341183
0.9422844167983295
0.9415807689544547
0.4458448765864183
0.44275689819000186
1.0009091887625987
0.2140912345897556
0.334666207565934
0.3759777675115869
0.00026958292806711153
0.9668351301294511
0.9678065774666573
0.24452847087638796
0.594322683205674
0.8289455858957014
0.831769605721206
0.1894530026616502
0.8298899942890526
0.23670533845517094
0.8791998295099499
0.8779462967679729
0.6193916751557187
0.8930326511643875
0.6174183199691137
0.05231974478660414
0.9504722184672922
0.39418036212341134
0.6226815078081217
0.377081428801545
-0.007527988563407235
0.3126281788576775
0.056812037599933876
-0.0006270299160123632
0.5659299774460185
0.11678271034185589
0.22035591728532367
0.08609128656044053
0.800140555534431
0.8737168286857933
0.9756083557259384
0.5841290115120358
0.00324094726484748
0.40665378176124867
0.07766463068277595
0.9992700121356474
1.000305474505686
-0.0010654006250925658
0.057923480866200014
0.9446720514942424
0.0003796865297027822
-0.004566448256965012
0.23557030204390275
0.766759645834568
0.4368314851805417
1.0029835129541826
0.2281846104462461
0.817323562137296
0.1993606520151991
0.8071891370088307
0.19267188324953496
0.9787273317345381
0.001688372687687257
0.4132082990884799
1.0008803507043404
0.9584265249883092
0.044306942780489106

SCALARS Omega double
LOOKUP_TABLE default
-7.6763564175897585
-1.202037233994038
8.545659156959267
15.920672866425495
36.51272783511198
-6.477634756876388
2.423382620238481
-4.466972765088812
-0.4274647425001455
1.9259728130146931
0.05141791547940276
-0.6341392596711719
0.47935230362424947
1.1394992260550607
0.19600772807293645
0.8259429335056541
0.4998051538290532
0.7924804672060818
1.5633682318872821
-0.11067565317234444
1.433712122732145
1.2643435673901757
-0.4792170928380703
0.49776073676447796
1.0744007723288835
1.0491583537971894
0.7436900717185466
0.23147857906307298
0.44949874241888366
1.4133334790679295
1.1055246669641596
0.13668347158998365
1.335148511801113
0.8520524451112059
0.41993644264368146
1.1457672779524253
0.7609037586081264
0.38400231289333253
1.3459712961571375
0.6872811841367709
1.4168927358249372
0.7170015179659407
0.42821344767755243
0.36201776040223155
0.9675704362906952
0.7466620909290131
2.20407325739341
0.4758573850516893
-0.508631972320583
2.2287562118924034
0.9070383474068949
1.9260872384862198
9.627122113855703
-7.709171166670252
0.4903253008729431
2.6743834606044827
1.5303364170729512
-0.0796382014212213
-0.9661530167631672
-2.4556287503117775
-3.149929479057209
-1.6830608275877703
-0.2845214721418103
-0.7104129505763821
-1.1023583137228543
-0.10218853242039419
-0.7397896194394994
-0.37637912575886
-1.08256413724149
-0.829748990789068
-0.30435834698282427
-0.7207996527230696
-0.45392558614108636
0.13188317238860206
-1.7902106663574764
-0.6406290019094377
0.41588341927892447
-1.5136127742252226
-0.5967882391261824
-0.2794655694509145
-1.1396715737682004
-0.8222459520499785
-0.4309784784430089
-1.1418932486196898
-0.922754302090271
-1.4817615580826238
-0.13637448464796184
-0.5579444755326711
-1.0223769871012305
-1.1404294313250611
-0.7602550978576206
0.729218915195877
-1.4413164645187666
-1.261976009582156
0.23416018076318676
-0.8674970986424355
-1.1259151593918142
-0.1396495156461722
-0.5435373664646362
-1.5207731625883256
-1.5267884346530995
-0.3737164434859901
-1.9039278241798494
-0.48501745553215575
-2.0689281653996208
-0.4993860274700456
-0.1416057439797627
-2.069235805104363
-1.9113421273643454
-0.8189615234781604
0.7509853536137613
-4.592833974620686
2.645785360701987
0.31200249424272564
-0.025394534994198314
-0.8569699732169181
1.6496833453956488
-5.888733909591809
-2.339297122218728
-42.60945838057209
-0.516063154235395
0.4886140570885174
0.061104306573942224
-0.0923094706912048
-0.28472943529604633
-0.24304011132043946
0.1836721638826315
-0.3752896493326474
-1.6759583175300494
3.0964305523055975
2.5471384957819088
-2.650819007503281
-2.728182926281814
-2.374301286602694
-2.6189092910996936
-2.0164212024542016
2.910670535838864
2.8483906034950692
2.755810268949547
2.9238232200095724
2.3118380492246637
2.8544501490349745
-3.214215992539837
3.845878227923493
-2.588931427011952
-3.9168070943952467
-3.8971792894334945
5.21887012908343
4.276217382884413
3.9970109800126044
-4.681033051650541
-4.237731584282664
-4.194563683519706
-4.0017877031460785
4.1424259987860355
3.916497544368846
4.154240038974606
1.9657926324479924
4.55728370866504
-3.973401018027098
-1.7025589768685667
-4.6216530798763875
-4.976550609474359
-1.4205355300656202
-0.16944573778566277
0.7194649947205768
-6.333012730331315
-5.459491793404375
5.023101327821281
-5.16179820248899
5.238916750892073
5.045493355626645
-1.26553893194175
-4.89816337466308
0.1809029275768628
0.12456598721418971
0.09935771027618079
-0.1713255001058177
-0.013864693833211358
-0.17152677951749037
0.06835927056089164
-0.114726186752333
0.08207006585059337
0.14598258176037743
0.23737941838414892
-5.664985484599991
5.454156578958321
7.333820507414205
-5.8820412122611945
5.937121318797293
5.938020409674155
6.154938137392523
-5.5408904898413684
5.686065851586628
5.355758490735168
-5.653389133697426
-5.519872880875074
-6.434000160708024
6.598774877015223
5.765777091264233
5.853303837912562
0.28154937366136484
13.255555863684465
5.689452613049791
-5.651914396427575
2.176550263536486
2.262062918179077
-2.3296685698243014
-5.459631279555575
-2.3400085158627166
-5.992315512613315
2.4896864795009384
-2.3729681429963874
-2.3406125693272495
-1.7982628236875005
1.9064666428718264
2.094073045496863
-5.6481166244095515
0.08702424117702573
6.132971851881148
1.7137845807306251
-2.131819295655242
-1.616390352268889
2.1971057449594955
5.667972462660503
-1.7761433326621061
-1.2669451231140334
0.6629510674559196
2.486317839522158
-6.1093132939472135
-1.8698464621972262
-6.254042986726017
-6.260493653183409
-6.443903795394453
-1.7981016396306433
-6.324125093914626
-4.516386777117404
2.476215208632139
-2.0993301974338867
-2.318676098786376
2.490588342473933
2.173872116193844
-2.159743441883688
-1.4176081589860725
1.3991188015490044
1.5198348739837286
1.5764519189628179
2.000162512883886
2.903374856839418
5.868360678413715
-6.609278393637314
-7.609795277494274
-6.637311514392689
-8.440119079011648
6.4346711298954125
7.044001961640252
-1.5145856335546666
6.76548935351941
-0.9145844775062923
-1.0092560974120524
6.756721620122644
-5.549953004994286
8.131765179943384
6.011200161848257
-6.333899290689467
5.657130306082847
-2.0494978532784467
5.757794783166318
7.204953109483226
-2.0322786474718613
-8.578409099250592
-10.847754696868169
-8.80467493362253
6.739503626984476
5.9579509234424
-1.0380228437111705
7.108915027521092
-2.1715526335290103
-8.00068546739818
2.1080372880985156
-1.8718882057103357
-1.849653259378637
23.70949979335657
-6.225313458339677
1.9455960896316458
-3.2947667220370453
3.4729952018890424
3.183126907540723
3.140473618923496
7.5953471230377305
1.6209140696954847
-8.358017342111719
8.621771702589935
7.01617296836694
-1.4498869588488055
-1.4934097176218661
-3.226675812629946
6.804286891245825
-6.811038374871682
4.015679731028766
-1.8759420165925962
-3.7592242580046187
-0.4449257981563887
-6.473095500972389
3.282498162145591
7.698600220241038
5.575535037883833
-4.100674317519205
-3.150648010271128
-10.00552548883901
-0.38956318115226873
-8.367804407279838
-1.4067705574310363
-3.0171151321343403
-8.724416921432084
-7.925752472476201
-0.7929174966742032
-0.5511431861907867
-0.77227812480489
0.7628707930811222
0.8690286692084754
-7.451338266696283
1.3404635311276951
-9.35560884965687
1.8901464798164491
-4.0062823934915945
-4.1313389017197935
9.839725288976553
3.0310511269830207
-3.071399373521769
3.063338305204631
-3.2686282426095707
-3.031691087205654
3.189998770320172
6.727234848123505
-6.558765777400363
-4.082554018950747
4.003127644440485
-4.013324366288991
-1.2733670306476037
0.9634289062418507
5.607335660040563
-9.214034029131199
-0.6810483284765827
-0.7144174956171663
1.0116955046482046
0.847050372352214
0.7209161123427524
-6.707362346250522
-8.021707794330576
-3.839620586035172
4.024415605820642
3.879420002867234
0.9517632066615241
-0.8098703606142929
-0.6374369140162446
-9.1409198546293
0.8095016062826585
4.3663617482588535
-3.9266394796169255
9.568391694081791
-2.977799232267836
-0.44396563380772097
0.20071487646553693
-0.7974667703373993
3.838959406229415
0.23579921671427004
8.638499404170624
-0.3237595341351871
6.820971393802253
6.327250576473819
4.40537117941669
5.496697153833799
2.973826496718446
-7.937807827263911
-1.2880131924772684
1.9359368546435438
0.6918330340147514
1.648775429780101
-1.7917008365994216
-4.499603709665165
-10.000445951707194
-0.5432860307912927
0.7362265116223891
3.508913726142751
0.6728092864146209
-0.5332575829185456
-0.46808899322058356
5.48159410148122
4.905751802843708
-3.936939818406016
-4.009411009967745
3.854107783682308
-0.6843893587134545
6.378000449241204