# vtk DataFile Version 1.0
2D Simulation C++
ASCII
DATASET UNSTRUCTURED_GRID
FIELD FieldData 1
NODES 1 2 int
715 1308

POINTS 715 double
0.0 0.0 0.0
5.0 0.0 0.0
5.0 1.0 0.0
0.0 1.0 0.0
0.10000000149011612 1.0 0.0
0.20000000298023224 1.0 0.0
0.30000001192092896 1.0 0.0
0.4000000059604645 1.0 0.0
0.5 1.0 0.0
0.6000000238418579 1.0 0.0
0.699999988079071 1.0 0.0
0.800000011920929 1.0 0.0
0.8999999761581421 1.0 0.0
1.0 1.0 0.0
1.100000023841858 1.0 0.0
1.2000000476837158 1.0 0.0
1.2999999523162842 1.0 0.0
1.399999976158142 1.0 0.0
1.5 1.0 0.0
1.600000023841858 1.0 0.0
1.7000000476837158 1.0 0.0
1.7999999523162842 1.0 0.0
1.899999976158142 1.0 0.0
2.0 1.0 0.0
2.0999999046325684 1.0 0.0
2.200000047683716 1.0 0.0
2.299999952316284 1.0 0.0
2.4000000953674316 1.0 0.0
2.5 1.0 0.0
2.5999999046325684 1.0 0.0
2.700000047683716 1.0 0.0
2.799999952316284 1.0 0.0
2.9000000953674316 1.0 0.0
3.0 1.0 0.0
3.0999999046325684 1.0 0.0
3.200000047683716 1.0 0.0
3.299999952316284 1.0 0.0
3.4000000953674316 1.0 0.0
3.5 1.0 0.0
3.5999999046325684 1.0 0.0
3.700000047683716 1.0 0.0
3.799999952316284 1.0 0.0
3.9000000953674316 1.0 0.0
4.0 1.0 0.0
4.099999904632568 1.0 0.0
4.199999809265137 1.0 0.0
4.300000190734863 1.0 0.0
4.400000095367432 1.0 0.0
4.5 1.0 0.0
4.599999904632568 1.0 0.0
4.699999809265137 1.0 0.0
4.800000190734863 1.0 0.0
4.900000095367432 1.0 0.0
5.0 0.8999999761581421 0.0
5.0 0.800000011920929 0.0
5.0 0.699999988079071 0.0
5.0 0.6000000238418579 0.0
5.0 0.5 0.0
5.0 0.4000000059604645 0.0
5.0 0.30000001192092896 0.0
5.0 0.20000000298023224 0.0
5.0 0.10000000149011612 0.0
4.900000095367432 0.0 0.0
4.800000190734863 0.0 0.0
4.699999809265137 0.0 0.0
4.599999904632568 0.0 0.0
4.5 0.0 0.0
4.400000095367432 0.0 0.0
4.300000190734863 0.0 0.0
4.199999809265137 0.0 0.0
4.099999904632568 0.0 0.0
4.0 0.0 0.0
3.9000000953674316 0.0 0.0
3.799999952316284 0.0 0.0
3.700000047683716 0.0 0.0
3.5999999046325684 0.0 0.0
3.5 0.0 0.0
3.4000000953674316 0.0 0.0
3.299999952316284 0.0 0.0
3.200000047683716 0.0 0.0
3.0999999046325684 0.0 0.0
3.0 0.0 0.0
2.9000000953674316 0.0 0.0
2.799999952316284 0.0 0.0
2.700000047683716 0.0 0.0
2.5999999046325684 0.0 0.0
2.5 0.0 0.0
2.4000000953674316 0.0 0.0
2.299999952316284 0.0 0.0
2.200000047683716 0.0 0.0
2.0999999046325684 0.0 0.0
2.0 0.0 0.0
1.899999976158142 0.0 0.0
1.7999999523162842 0.0 0.0
1.7000000476837158 0.0 0.0
1.600000023841858 0.0 0.0
1.5 0.0 0.0
1.399999976158142 0.0 0.0
1.2999999523162842 0.0 0.0
1.2000000476837158 0.0 0.0
1.100000023841858 0.0 0.0
1.0 0.0 0.0
0.8999999761581421 0.0 0.0
0.800000011920929 0.0 0.0
0.699999988079071 0.0 0.0
0.6000000238418579 0.0 0.0
0.5 0.0 0.0
0.4000000059604645 0.0 0.0
0.30000001192092896 0.0 0.0
0.20000000298023224 0.0 0.0
0.10000000149011612 0.0 0.0
0.0 0.10000000149011612 0.0
0.0 0.20000000298023224 0.0
0.0 0.30000001192092896 0.0
0.0 0.4000000059604645 0.0
0.0 0.5 0.0
0.0 0.6000000238418579 0.0
0.0 0.699999988079071 0.0
0.0 0.800000011920929 0.0
0.0 0.8999999761581421 0.0
0.7496038675308228 0.5164291858673096 0.0
1.3451675176620483 0.5190238952636719 0.0
1.9462687969207764 0.4963642954826355 0.0
4.456614971160889 0.5060901641845703 0.0
3.864220380783081 0.4866538345813751 0.0
3.249823808670044 0.482722669839859 0.0
2.6500000953674316 0.5 0.0
0.3810288906097412 0.399004191160202 0.0
2.308779239654541 0.3797946870326996 0.0
1.0499999523162842 0.6625000238418579 0.0
1.644740104675293 0.6598879098892212 0.0
4.150000095367432 0.3375000059604645 0.0
3.555316209793091 0.3343118131160736 0.0
2.9446933269500732 0.3401789665222168 0.0
1.6342840194702148 0.3290160894393921 0.0
1.0591840744018555 0.33908534049987793 0.0
2.9654481410980225 0.6753292679786682 0.0
3.5534629821777344 0.6835107207298279 0.0
4.153462886810303 0.6835107207298279 0.0
2.2139804363250732 0.6805098056793213 0.0
0.4914395809173584 0.6739721894264221 0.0
4.691666603088379 0.6916666626930237 0.0
4.691666603088379 0.3083333373069763 0.0
2.4872219562530518 0.7236665487289429 0.0
0.6240421533584595 0.2677222192287445 0.0
2.0697431564331055 0.2657754421234131 0.0
2.5389034748077393 0.26082900166511536 0.0
0.8147311806678772 0.7450684309005737 0.0
1.2897310256958008 0.743314266204834 0.0
1.8853894472122192 0.7450258731842041 0.0
4.382374286651611 0.23655959963798523 0.0
3.910269021987915 0.25668570399284363 0.0
3.1838724613189697 0.25397706031799316 0.0
1.398239254951477 0.2614254057407379 0.0
3.201760768890381 0.7385746240615845 0.0
3.8017609119415283 0.7385746240615845 0.0
4.39177942276001 0.7466779351234436 0.0
0.25301694869995117 0.7458874583244324 0.0
2.7258167266845703 0.7600342631340027 0.0
0.84163498878479 0.2263137847185135 0.0
0.22429518401622772 0.22429518401622772 0.0
2.7605957984924316 0.22504857182502747 0.0
1.8330284357070923 0.2150011658668518 0.0
0.2192869633436203 0.5323538780212402 0.0
4.7908525466918945 0.5038931369781494 0.0
2.466000556945801 0.5376454591751099 0.0
3.7061264514923096 0.17723728716373444 0.0
3.3929696083068848 0.20266839861869812 0.0
1.4905184507369995 0.7937026619911194 0.0
1.2104878425598145 0.20361483097076416 0.0
3.9895122051239014 0.7963851690292358 0.0
3.389512300491333 0.7963851690292358 0.0
0.5652223825454712 0.5070380568504333 0.0
0.44509074091911316 0.19716571271419525 0.0
2.1318352222442627 0.5042122602462769 0.0
1.548349142074585 0.4954715371131897 0.0
3.050636053085327 0.5004673004150391 0.0
0.9511125087738037 0.498258113861084 0.0
3.651650905609131 0.5045284628868103 0.0
4.248488903045654 0.4980509281158447 0.0
1.1537858247756958 0.49593159556388855 0.0
4.050199031829834 0.49993085861206055 0.0
3.464722156524658 0.509624183177948 0.0
1.749653697013855 0.5001751780509949 0.0
2.851828098297119 0.5057260394096375 0.0
2.359710216522217 0.1888567954301834 0.0
2.0499017238616943 0.8199846148490906 0.0
0.6430503129959106 0.8181284070014954 0.0
4.560274600982666 0.1724673956632614 0.0
4.55863094329834 0.8299665451049805 0.0
2.321284055709839 0.8242537379264832 0.0
4.815218925476074 0.8345447778701782 0.0
4.837246894836426 0.16590170562267303 0.0
0.9682294130325317 0.8331464529037476 0.0
1.730908751487732 0.827606201171875 0.0
4.220076560974121 0.17516615986824036 0.0
3.02066969871521 0.18326662480831146 0.0
1.5634372234344482 0.17044226825237274 0.0
3.035303831100464 0.8294908404350281 0.0
3.627507209777832 0.8360387086868286 0.0
4.2312469482421875 0.8315803408622742 0.0
4.618130683898926 0.5361976027488708 0.0
0.40311703085899353 0.8369210362434387 0.0
1.1473191976547241 0.8458209037780762 0.0
4.052680969238281 0.15417908132076263 0.0
2.020958423614502 0.6394158005714417 0.0
0.662188708782196 0.6447370648384094 0.0
4.5115838050842285 0.3538685142993927 0.0
1.0221220254898071 0.15309639275074005 0.0
0.3837882876396179 0.5515117049217224 0.0
3.548090934753418 0.15800617635250092 0.0
1.4348299503326416 0.6465393304824829 0.0
3.765170097351074 0.3534606993198395 0.0
3.3348300457000732 0.3534606993198395 0.0
1.2546738386154175 0.36384353041648865 0.0
3.945326089859009 0.636156439781189 0.0
3.3412928581237793 0.637225866317749 0.0
2.1904795169830322 0.17066854238510132 0.0
0.16392111778259277 0.38331863284111023 0.0
2.87723445892334 0.8265392184257507 0.0
4.8459792137146 0.6499902606010437 0.0
4.845625400543213 0.34837812185287476 0.0
2.771622896194458 0.38129922747612 0.0
4.5222978591918945 0.6578375697135925 0.0
2.604464530944824 0.8240283727645874 0.0
1.8544400930404663 0.3751189708709717 0.0
0.8566747903823853 0.38255012035369873 0.0
2.2932615280151367 0.5369129776954651 0.0
2.620572805404663 0.6496497392654419 0.0
0.7172287106513977 0.1490369737148285 0.0
0.1410960853099823 0.8303417563438416 0.0
1.7142322063446045 0.142862930893898 0.0
2.6314175128936768 0.14492936432361603 0.0
1.9832650423049927 0.1408119648694992 0.0
2.445650577545166 0.370038241147995 0.0
2.885042667388916 0.1455758661031723 0.0
0.13937503099441528 0.6546638011932373 0.0
0.9110832810401917 0.6349053978919983 0.0
3.088575839996338 0.3613528311252594 0.0
4.296638011932373 0.3563385307788849 0.0
1.1930090188980103 0.6355591416358948 0.0
1.788455843925476 0.6387236714363098 0.0
4.006990909576416 0.3644408583641052 0.0
1.4459187984466553 0.39242905378341675 0.0
4.354081153869629 0.6075709462165833 0.0
3.7540812492370605 0.6075709462165833 0.0
3.1591691970825195 0.6018876433372498 0.0
2.7615907192230225 0.6205627918243408 0.0
2.36276912689209 0.6735464930534363 0.0
1.3681535720825195 0.8630191683769226 0.0
3.8318464756011963 0.1369808316230774 0.0
3.275517463684082 0.10712132602930069 0.0
0.5630941987037659 0.12814241647720337 0.0
1.3237862586975098 0.10638008266687393 0.0
3.2733232975006104 0.8705052733421326 0.0
3.8733232021331787 0.8705052733421326 0.0
2.0396511554718018 0.38928428292274475 0.0
2.2168734073638916 0.8508136868476868 0.0
0.5163488388061523 0.3409615159034729 0.0
0.6547463536262512 0.3955095112323761 0.0
1.9480526447296143 0.8710126876831055 0.0
4.689375877380371 0.13700176775455475 0.0
4.698264122009277 0.8675068616867065 0.0
0.7578787803649902 0.8698469996452332 0.0
2.479548454284668 0.13692785799503326 0.0
2.4562506675720215 0.8735422492027283 0.0
2.171211004257202 0.3573116958141327 0.0
3.5117530822753906 0.853193998336792 0.0
4.107914924621582 0.8658969402313232 0.0
2.640726327896118 0.354434996843338 0.0
4.346996307373047 0.1279495507478714 0.0
0.3128283619880676 0.11246757209300995 0.0
0.136248379945755 0.12152919173240662 0.0
4.453908443450928 0.8629162907600403 0.0
1.6064813137054443 0.8679171800613403 0.0
0.3380795121192932 0.6626779437065125 0.0
0.5102446675300598 0.875635027885437 0.0
0.7425088882446289 0.2989330589771271 0.0
3.1349449157714844 0.10448489338159561 0.0
1.3287748098373413 0.6181886196136475 0.0
3.871795415878296 0.38215625286102295 0.0
3.229135036468506 0.3810797333717346 0.0
0.28971707820892334 0.8759857416152954 0.0
0.9214505553245544 0.11992674320936203 0.0
1.9219478368759155 0.6237660050392151 0.0
1.530794620513916 0.29603153467178345 0.0
3.072223663330078 0.7044162750244141 0.0
3.6722235679626465 0.7044162750244141 0.0
[...]
POINT_DATA 715
SCALARS Psi double
LOOKUP_TABLE default
0.0
0.0
1.0
1.0
1.0
1.0
1.0
1.0
1.0
1.0
1.0
1.0
1.0
1.0
1.0
1.0
1.0
1.0
1.0
1.0
1.0
1.0
1.0
1.0
1.0
1.0
1.0
1.0
1.0
1.0
1.0
1.0
1.0
1.0
1.0
1.0
1.0
1.0
1.0
1.0
1.0
1.0
1.0
1.0
1.0
1.0
1.0
1.0
1.0
1.0
1.0
1.0
1.0
0.9195155070991115
0.8664802791576495
0.7657096954462723
0.6289026881716165
0.4703997698593538
0.3108057737383613
0.17217056299629435
0.0701855388533488
0.018430410238311403
0.0
0.0
0.0
0.0
0.0
0.0
0.0
0.0
0.0
0.0
0.0
0.0
0.0
0.0
0.0
0.0
0.0
0.0
0.0
0.0
0.0
0.0
0.0
0.0
0.0
0.0
0.0
0.0
0.0
0.0
0.0
0.0
0.0
0.0
0.0
0.0
0.0
0.0
0.0
0.0
0.0
0.0
-0.0
0.0
0.0
0.0
0.0
0.0
0.0
0.027348944609406626
0.1076947237615906
0.2092302663365217
0.31087359564123795
0.41246416439768735
0.5108187786234275
0.6026377064084016
0.678450658788912
0.6416407546460332
0.5300713196644545
0.5436200920414203
0.5006195425310833
0.4948204304929089
0.4705382275266918
0.47035301800066404
0.5081097039438878
0.3204052482677957
0.3058511470044714
0.7747680024482835
0.7665011818104318
0.22682402079794328
0.2224059805319052
0.24278116350044035
0.22693733037965344
0.2548710843501351
0.7930221731209856
0.792829067338418
0.7909062497860814
0.7982614742574738
0.7598880571538732
0.7876913428719031
0.17502140889455267
0.8544435069834558
0.15683892407899006
0.14294298814043585
0.13730649473980605
0.8816153340463346
0.8776453500252334
0.8765628350886365
0.0906469912955186
0.12161209929873765
0.12154808685311835
0.13534647837810762
0.8701173983670055
0.8655236338208275
0.870641387646711
0.7934739382644287
0.9004054393056697
0.11060181674358148
0.11127121844931108
0.0940209882282925
0.08169203465261295
0.464568230403384
0.47947562816925293
0.5719125379654947
0.039717899945792154
0.06205773681573762
0.9299556321591886
0.06977486751019149
0.9275075464190936
0.9276196287475583
0.4954577145809222
0.07117517212041037
0.5146150918877237
0.5012710210005172
0.5055596256850601
0.5098945250639269
0.502160897920328
0.4860369567305728
0.5069683474499578
0.4919525313294032
0.5123964126789842
0.5075558752682521
0.5175989859257898
0.056200353113188536
0.9538110330912869
0.9590469966762872
0.03634874841254507
0.9542591867321908
0.9594970125937038
0.9430569513105445
0.02755920367590182
0.9639140169091518
0.9568834443688045
0.039933304638689035
0.051188064228378474
0.04066388173013263
0.9655626339930298
0.962076336271056
0.9591051539887886
0.5410819047802689
0.9786722965353659
0.9709321590243282
0.029482895750324426
0.7353082718706921
0.734462325086138
0.242963825275177
0.03679644997795389
0.529290120133578
0.028777437384901818
0.7489958846080759
0.2507443447842982
0.2545667290266546
0.2870030627580167
0.7198043308472662
0.7253552795836484
0.043413423514032386
0.2947967002017239
0.9645772617650742
0.7162123964586327
0.22528869864129356
0.3087858098429389
0.7453156647331435
0.959965901857458
0.29820697289890297
0.3223250268595224
0.5700831352765797
0.7545770624731153
0.037262635669265465
0.8225966634499023
0.02535112135020463
0.02650209968824626
0.024639094675909273
0.2911351177613914
0.025659618912324354
0.583798921385602
0.7316999939341179
0.273093009261039
0.25170072413379335
0.7338419577957844
0.7334967360955493
0.26903601159028945
0.32945905153501903
0.6691170475933337
0.6748922778523531
0.6739454295655135
0.7091588278578705
0.7867391083788422
0.9791931158684267
0.017505384045996122
0.0018826137741720023
0.021262647020340645
0.0011064286435195545
0.9816516886387835
0.9827194272654912
0.3217712589183645
0.9761302184391473
0.24963498701368445
0.33449113065300795
0.985358679562099
0.019380626736363617
0.9791510347055965
0.984956120679317
0.02268967787916227
0.9841924155280936
0.2709528843036147
0.9702933696339494
0.9807480264952807
0.2673072965923143
0.005728267749739334
0.006011388123494737
0.02258995139311409
0.9777624615183755
0.9812219618785833
0.694234499600825
0.9922280105925038
0.1999884217219776
0.003052626986861574
0.7057691172749342
0.2969271131090442
0.30118727122437167
1.018756930472528
0.021836850178199918
0.7100373430173929
0.18101117539694667
0.8304567593136084
0.8205261747202081
0.8177281372471814
1.0057333981471686
0.689197049630528
0.004116845900411643
0.9948182639471358
0.9943969192491117
0.15506176821146095
0.32279944617461903
0.18123550936161129
0.9957625129697458
0.0036444678907441835
0.8691518003347624
0.29121621846809104
0.12751009900465127
0.3409440653218048
0.011359415888263521
0.16199681240181382
0.9905623689503982
0.9901126076551303
0.12387766414561495
0.18933330899844794
-0.001532361179230832
0.43927968347699214
-0.0033372132513036267
0.40476549770780856
0.18981724822450627
-0.0037130076221645507
0.0008119190896770766
0.4106476342241152
0.425912175917878
0.4144678804857184
0.5925669801684853
0.5911795113595791
0.003132126862531024
0.5526555503829222
0.0016285981298476263
0.6947438251542466
0.12638384400790884
0.6021283310409556
1.0010617574035872
0.8080065779732573
0.1732346892182601
0.8052433768820448
0.18119078838646155
0.19991192023019352
0.8172239061673428
0.998343571445901
0.0016411253502073347
0.13075887816616016
0.8665630732270918
0.13205572113281439
0.33051140057575634
0.6198009549479727
0.8298243788444835
0.10314022092363906
0.4081290510633976
0.4167374591394075
0.6106669241802197
0.599735933425112
0.594495757146663
0.020348730392108737
0.6538766975281329
0.13742708539975743
0.8671875052482478
0.8642700581431226
0.5958987255314926
0.4088153647522614
0.4220759677453596
0.003849593589761789
0.5897419398302945
0.868697428394881
0.13293227676218972
1.006322724150953
0.19253116466325568
0.5743214515462172
0.6579468989619152
0.40558102258209966
0.8631895718171911
0.5815438596758075
0.9991963780592024
0.4497421048196754
0.9885534967793294
0.9876835297933935
0.8965306317150677
0.8673494600843258
0.9585895973608823
0.00579046398781841
0.4240155981505756
0.7081514828128236
0.5768036779132333
0.6827993931139744
0.36519480155750683
0.10241364279462155
-0.0013925236374080345
0.44041392461460116
0.21144024546651313
0.8409124510209627
0.5648234148618045
0.4418766053825856
0.44638337385633087
0.8513456489619887
0.8766000514996602
0.13579536964582165
0.12153445689769067
0.8691671407426337
0.4085931486135583
0.9990503937398021
0.14237868216534902
0.9064273720355371
0.907872929083026
0.3551782232168592
0.9178470941085498
1.0040491069039932
0.11255266849574483
0.14105351355034282
0.6792271800619927
0.32380465758120647
0.6801781962314308
0.6894795769109204
0.0840497424913862
0.6698467388094879
0.33445795664802086
0.33368102637136
0.0065072423525926616
0.47186760628400765
0.2623739479522553
0.7408731019477155
0.7663858294580073
0.3389859744262426
0.8774425482985906
0.668247361901597
0.6649284499782897
0.6375626518073084
0.007539592532736119
0.007449022111501067
0.1285021707791295
0.8254048765707215
-0.0030581519011516254
0.9160106620966662
0.9162761486151411
0.849791831067237
-0.003350386991163286
-0.0026965676734908876
0.19014044260713175
0.34036341948408105
0.00035816767660448875
1.000412915953853
0.33699248113858354
0.888793040059086
1.0001540114929575
0.8834825973518333
0.1188208815284075
1.005773209419805
-0.0013246913711886428
0.10117121024890306
0.9955612310066463
-0.00039730059167230545
0.317540493578825
0.0005932971251308393
0.6930895468828173
0.003663753997585522
1.00190942062758
1.0043902245614231
0.11100451022029055
0.4931455412923527
0.14897788903129544
0.997759250093219
0.886718896832111
0.998893960585445
0.3264838060002368
0.9993756197827812
1.0027988017232223
0.13331609362388072
0.08739782670908322
9.923823684994504e-05
0.27850499800704515
0.6485324803790143
0.5856626782154819
0.4122538154767485
0.564774616966895
1.0039908968053841
0.2555401498856738
0.5725616377801367
0.9999252245296831
0.0003687993426061238
-0.0012671291450341315
0.19364137256487066
0.40715763733436183
0.5774277408726071
-0.0017951845054644084
0.9223664783390932
1.0051694914594314
0.8847991304800795
0.09054004200692359
0.9150310992562306
0.9095674444814953
0.6335063601920402
0.07648323622239614
0.897193910569702
-0.0018972728435093238
0.2765370967591157
0.0026467608986295945
0.9331364929996452
0.06653371653581186
-0.0014565144374409154
0.5886392677501745
0.5399685704379626
1.0041942651499927
1.0154459080966363
1.0014315663157425
0.0013142239052110138
0.4331886216112289
0.6801706265153643
0.6879575182641237
0.682250176882022
0.3195025999468505
0.31577304531239536
0.3281179994030566
0.9441258940083548
1.0353795310358704
0.9973887411023211
0.9947922048652155
0.9635014088232434
0.6847775122777137
0.7573290184952426
-0.0018920951195329151
0.06494526395220748
0.7910090810645982
0.7077354297998055
0.22813974513076746
0.8726693835691226
0.08335120972359322
0.07515331317405331
0.7187494777683653
0.6225934547961545
0.4344823977658565
0.9980587033311514
1.001155532503361
0.7760699290761878
0.1003548721117535
0.9314947784858233
0.20942580323983212
0.9525159007243814
0.052383496195913454
1.0003142043670625
0.002153497917719172
0.3654699288810666
0.6136812448228754
0.358778686267332
0.8332937127232106
0.041170816598360756
0.5913320381048857
0.37552725651450175
0.839524580355003
-0.0011336372339682637
-0.0034284383069221797
0.1894489971416034
0.17248154829746773
0.05590689908933943
0.10316332591033814
0.9457114886405205
0.8419723515613122
0.15915212385388622
0.8016897245902614
0.2031881890025521
0.9068481066824396
0.904685584332189
0.9038118339638613
-0.004541382952364776
0.9414595262589628
0.3587308378038282
0.2153994613385442
1.000443093142042
0.1679481380359722
0.5580459460608209
0.7155769366690343
0.6114615596435761
0.6411266217613444
0.043168636843253165
0.9526983271932177
0.952198951043218
0.05462368829996556
0.6962948567623274
-0.00614793418623094
1.005731168982294
1.0036253430186024
0.03684815815612186
0.04054702572484742
0.8957076702156735
0.25191997877055594
0.9487674959899646
0.45024444129665464
0.8605185473335286
-0.00039830037383562893
0.644684180291825
0.3553079907099305
0.3649506867590512
1.00109860337855
-0.002069644030754759
0.5573403846963081
-0.00755555351839579
0.4132142291734238
0.0673894638128234
-0.0011414168502169248
0.23319170881457818
0.6273820678207442
0.7203127071419627
0.7849470132307464
0.9501439797800557
0.047420468156851164
0.23984629694874757
0.18337741941147892
0.7698405040514598
1.004389556383612
0.23313099011427652
0.06764407055508259
0.1837155806358351
0.05284352738175023
0.9305223712496223
0.04613499405221185
0.20937277874199062
0.7888218123000251
0.7931538654195127
0.8010644645338397
0.40767996768901105
1.005876697805154
0.3697643237166296
0.9182659760377258
-0.00117924115410737
0.05021101820051048
0.03907614665696428
0.5961202903327258
0.06955162130636487
0.0020974789983641104
0.05988041855519507
0.08157785475930011
0.41158991297722025
0.5632430874885116
0.029491067046001664
0.19195183022775067
-0.0018223374138597657
1.0000543740915284
0.9189226996201199
0.433805667684873
0.5719151794309868
0.6274284287335621
0.9393260729760224
0.051000071371272035
0.049802372315195874
0.9982432649526776
0.03017984617182581
0.5060818291420133
0.32347901861036366
0.11870287481615283
-0.0007749470883512426
0.7917834648356304
0.9494508915306077
0.14351634171909824
0.12531318502496305
0.8545557186182325
1.0017230567022273
0.04471385641839568
0.9440917684270069
0.9439845786911857
0.44385598788237385
0.44291358221822785
1.0007602721924902
0.21417678836392898
0.33467697041948186
0.3748283292807748
0.00026111443523761944
0.9682542379170829
0.9689493997389851
0.24455525039601855
0.5990705805943772
0.8343978778674339
0.8359274053162676
0.18889897727484342
0.8309390425957214
0.23057564929657945
0.8832804340691697
0.8823479062164985
0.6197064886274355
0.8947633629187272
0.6200073629813649
0.050973862035454384
0.9505923899015337
0.391214418203039
0.6235699713744453
0.3769347980102055
-0.007106100362407446
0.31269663731494823
0.05683109572938947
-0.0004306988080446824
0.5691125566635492
0.11510732598674124
0.2202890314976922
0.08609436987265436
0.8003115008017112
0.8744991397900597
0.9760284345008345
0.5847395219363289
0.0032573999466396137
0.40386707915993164
0.07769974393237812
0.9991905051965168
1.0001711799075093
-0.0009063170540715258
0.057928806500025784
0.9466938953965712
0.0004145530487693351
-0.004054809792685412
0.23336545283990695
0.7684659059711454
0.4368646467675236
1.0027584602116824
0.22167519585246434
0.8205238163858082
0.19646724477769958
0.8093193407503152
0.19051121160340395
0.9786927339282622
0.0016183717486535653
0.40710414167977826
1.0008862096474058
0.9587270616026201
0.04274423705945561

SCALARS Omega double
LOOKUP_TABLE default
-7.6764904968691985
-1.1815239156063184
8.585629103728262
15.92019319731446
36.51091742204018
-6.47775370576126
2.4232716165575967
-4.4647034769323595
-0.4278228836319026
1.9235685187075875
0.04830604332417864
-0.6367119234714089
0.4852619693171735
1.1462884143845902
0.23188413917195275
0.8262882402205268
0.5476170787221143
0.7962047138452178
1.558348495922944
-0.08696390485697282
1.4181079279707152
1.2463187562057172
-0.40965877770139325
0.4922555014578178
1.0677264254286205
1.0391235303162736
0.7638764826111137
0.24028297197009743
0.46078173130951344
1.4191721234726973
1.1071023891229208
0.1610798454926807
1.3296618009840802
0.8622575772015757
0.4158521464859377
1.1147588934364974
0.75440590797519
0.3786584571877838
1.3064347131882794
0.677864815092819
1.3712102686090215
0.6889500701647889
0.43561476983496167
0.3503264099228555
0.9350920954235379
0.7190006322926815
2.1043992088225836
0.46167902596814225
-0.4551976836045742
2.1450223905048333
0.8622930435216958
1.851184644076109
9.574385895377048
-7.86667010137385
0.5805810362160061
2.894071828758511
1.6576861136334609
-0.10643152904545752
-1.1852366502503404
-2.672888643113153
-3.3248113057798028
-1.5325734362676158
-0.2522735361167546
-0.6470073247023037
-1.0513069148626581
-0.14206256841265494
-0.701334734551769
-0.38494236176815305
-1.0660777026225279
-0.8180281687547492
-0.31119787942677135
-0.7190547437637587
-0.45844999753731513
0.09631926720671334
-1.761022862676114
-0.6495604602749537
0.3869321182976007
-1.4863905072373242
-0.5980680334124334
-0.3036656793688771
-1.101020888347447
-0.8051693433040544
-0.4288279459386718
-1.0995965080587875
-0.8837367591983114
-1.4100219843997073
-0.17685442323699396
-0.5625703847115058
-0.9662547303819742
-1.0789462937379661
-0.744934298291119
0.6830414456028873
-1.3957096210876914
-1.225718326816765
0.20210294710932739
-0.8514837556244989
-1.1191979201613165
-0.1623834914796242
-0.5574082683630002
-1.5260795049698186
-1.5307496807290886
-0.3930826709824774
-1.9060036588751945
-0.48588345667369437
-2.0720759716813886
-0.49875368879896687
-0.13993563790822952
-2.069474973344332
-1.9109470514927176
-0.8190295914867817
0.7511266507530946
-4.592711375479654
2.645810367308462
0.3120433508581659
-0.025399671354749787
-0.856963028974403
1.649790098624883
-5.889255663947213
-2.340391830497429
-42.60834814894089
-0.5123664326705314
0.5160389037454581
0.10202877987622257
-0.06294070812485145
-0.27802506644101604
-0.29140564071955244
0.10758854464349604
-0.37612989318732926
-2.0316910264291406
3.1287716638510212
2.8781867777697867
-2.9748033706719976
-2.984681999139098
-2.7494182358980543
-2.8528995430775863
-2.0454881193750185
3.172199523874226
3.215377003556362
3.1844740836517498
3.1800369558379655
2.317210493707246
3.2179225403956275
-3.605458045416346
3.9990705818165377
-2.586077768331805
-4.18788975359224
-4.168480583076605
5.215777826319048
4.355952148194847
4.177691775615395
-4.845328507838146
-4.4572727341115534
-4.343049003880364
-4.100543244897846
4.341215569569016
4.158347705475552
4.388435566950278
1.9688174967101644
4.662662084234371
-3.9676709562439156
-1.7028445366307796
-4.756298838404048
-5.080335386499656
-1.4216891983411923
-0.2193182998875652
0.7672580223724909
-6.278968157386479
-5.441500681477749
5.051690012446825
-5.152235937194405
5.258736829015101
5.0829702563973225
-1.264090914122845
-4.899433813395684
0.2210727030847765
0.1350875948055007
0.06296933244729656
-0.17006047324868429
0.04775089278748478
-0.1491188102577624
0.06502808012393234
-0.0712601014964262
0.1475029099113407
0.1958356410047139
0.19602565359397114
-5.595586985445814
5.374046207061712
7.331854131136238
-5.743456620622019
5.828216563067258
5.867203141764864
6.137710659986408
-5.308807385577838
5.641072993774668
5.241311745058868
-5.57740890856959
-5.445741208129795
-6.384379732990788
6.508192434985316
5.6008953173140155
5.724165575809447
0.4082519105931644
13.251650830791114
5.600687186085029
-5.5372672895250545
2.494577414974437
2.2674441986504856
-2.7351899682121728
-5.439340530860492
-2.3410334752156645
-5.890248465436665
2.709583719475629
-2.65101703568244
-2.603705472266983
-1.8809151567466142
2.324083389582097
2.4250928989939267
-5.556356678879841
0.0863514337312494
6.058264132739802
2.0843615803406066
-2.597634768136374
-1.9969395822365799
2.632754470033274
5.630639656850387
-2.0422658585356426
-1.2681496779566925
0.7605493974725499
2.7181663309582738
-6.110408097625972
-1.8663340731494058
-6.132565626149664
-6.036277498491598
-6.240157116684333
-2.2057583645098977
-6.079840214271943
-4.518054686007968
2.48782833496473
-2.3953100733503163
-2.658940810377395
2.56429690336552
2.4930328820496537
-2.4695475977102195
-1.5502655164061612
1.7701850343347552
1.8613601455158109
1.8260057524717828
2.213685846375102
3.111857838812801
5.7020488187947205
-6.447342446926184
-7.397582322416651
-6.641402202248452
-8.337683411511005
6.222211949960071
6.7357333756439735
-1.8093120367028708
6.640780190313188
-0.9136134621701605
-1.0069433356103576
6.533888486095565
-5.273549372914931
7.879556558105825
6.006227009772852
-6.024223775625372
5.580637727745234
-2.4283974673352824
5.5703744557724475
6.917121547501628
-2.479686721889942
-8.263551064824819
-10.849626407086205
-8.805214904972809
6.470516138944428
5.7385645548709086
-1.035741857574082
7.100504318157891
-2.167831947681194
-7.708165419624499
2.2348385074016
-2.1347849840181827
-2.0901975379702025
23.70250665946284
-6.214806545232792
2.2416520241146825
-3.4719554691763572
3.719464002201093
3.520632458823121
3.5254859292190868
7.4507636301535385
1.6267357456603333
-8.213614070980203
8.222698760677046
6.790152957709043
-1.4502506100135384
-1.8631735157735685
-3.548600370275318
6.684565943514257
-6.594332152191092
4.19119346178193
-2.209104712248735
-3.7599878441836427
-0.4460083502695983
-6.196453883199309
3.28248753180106
7.4271306754793125
5.573450054873109
-4.361014456382168
-3.4209002736250924
-9.953501138426828
-0.5930798156359491
-7.8841950341171465
-1.407137631345486
-3.3977957106114958
-8.535637318281815
-7.726367836939232
-0.9162008378364651
-0.7463148651907966
-0.8556823952107723
0.7767607256135395
1.0281985934964726
-7.087325850375069
1.508803667184549
-9.011584025049817
2.068807640902218
-4.270075285179079
-4.132634181798776
9.344504871422629
3.416714222876686
-3.113564170201083
3.3919185864658616
-3.5039030238846522
-3.287464358608078
3.4781939745624975
6.7070956367009575
-6.295355028577695
-4.3003862824373345
4.15696536110188
-4.185623363564977
-1.2839161302042112
1.2355963704319572
6.295818194582198
-10.00801116810226
-0.7855683422634574
-0.7307218650421062
1.1438947610696393
1.0604412648539512
0.9734210763290178
-6.702175271908313
-8.023516842297878
-3.9089204015492145
4.257452359506831
4.157140149477334
0.9931406495646745
-0.9248946612728057
-0.7861003581153398
-8.576701785375432
1.003286963522972
4.409623165491978
-4.196731254959617
9.349857728278657
-3.3861745171292843
-0.44023670317305347
0.20501157086116703
-0.981887069280143
4.028861248385647
0.24151769748529897
8.353902008840993
-0.46899954457109416
6.460616264779866
6.069751734801024
4.547234223647934
5.499133831523144
2.516635790934595
-7.384747927326309
-1.288639327791676
2.1824896816847272
0.858621524622042
1.9279749272031126
-2.3532196253531077
-4.638983335157724
-10.004266991455951
-0.6240319321177753
0.7356130738064843
3.733573280876232
0.7412302013927827
-0.5709806935613208
-0.5321901153449349
5.486291892056131
4.904078804526785
-4.122596641739476
-4.273259879300092