# vtk DataFile Version 1.0
2D Simulation C++
ASCII
DATASET UNSTRUCTURED_GRID
FIELD FieldData 1
NODES 1 2 int
715 1308

POINTS 715 double
0.0 0.0 0.0
5.0 0.0 0.0
5.0 1.0 0.0
0.0 1.0 0.0
0.10000000149011612 1.0 0.0
0.20000000298023224 1.0 0.0
0.30000001192092896 1.0 0.0
0.4000000059604645 1.0 0.0
0.5 1.0 0.0
0.6000000238418579 1.0 0.0
0.699999988079071 1.0 0.0
0.800000011920929 1.0 0.0
0.8999999761581421 1.0 0.0
1.0 1.0 0.0
1.100000023841858 1.0 0.0
1.2000000476837158 1.0 0.0
1.2999999523162842 1.0 0.0
1.399999976158142 1.0 0.0
1.5 1.0 0.0
1.600000023841858 1.0 0.0
1.7000000476837158 1.0 0.0
1.7999999523162842 1.0 0.0
1.899999976158142 1.0 0.0
2.0 1.0 0.0
2.0999999046325684 1.0 0.0
2.200000047683716 1.0 0.0
2.299999952316284 1.0 0.0
2.4000000953674316 1.0 0.0
2.5 1.0 0.0
2.5999999046325684 1.0 0.0
2.700000047683716 1.0 0.0
2.799999952316284 1.0 0.0
2.9000000953674316 1.0 0.0
3.0 1.0 0.0
3.0999999046325684 1.0 0.0
3.200000047683716 1.0 0.0
3.299999952316284 1.0 0.0
3.4000000953674316 1.0 0.0
3.5 1.0 0.0
3.5999999046325684 1.0 0.0
3.700000047683716 1.0 0.0
3.799999952316284 1.0 0.0
3.9000000953674316 1.0 0.0
4.0 1.0 0.0
4.099999904632568 1.0 0.0
4.199999809265137 1.0 0.0
4.300000190734863 1.0 0.0
4.400000095367432 1.0 0.0
4.5 1.0 0.0
4.599999904632568 1.0 0.0
4.699999809265137 1.0 0.0
4.800000190734863 1.0 0.0
4.900000095367432 1.0 0.0
5.0 0.8999999761581421 0.0
5.0 0.800000011920929 0.0
5.0 0.699999988079071 0.0
5.0 0.6000000238418579 0.0
5.0 0.5 0.0
5.0 0.4000000059604645 0.0
5.0 0.30000001192092896 0.0
5.0 0.20000000298023224 0.0
5.0 0.10000000149011612 0.0
4.900000095367432 0.0 0.0
4.800000190734863 0.0 0.0
4.699999809265137 0.0 0.0
4.599999904632568 0.0 0.0
4.5 0.0 0.0
4.400000095367432 0.0 0.0
4.300000190734863 0.0 0.0
4.199999809265137 0.0 0.0
4.099999904632568 0.0 0.0
4.0 0.0 0.0
3.9000000953674316 0.0 0.0
3.799999952316284 0.0 0.0
3.700000047683716 0.0 0.0
3.5999999046325684 0.0 0.0
3.5 0.0 0.0
3.4000000953674316 0.0 0.0
3.299999952316284 0.0 0.0
3.200000047683716 0.0 0.0
3.0999999046325684 0.0 0.0
3.0 0.0 0.0
2.9000000953674316 0.0 0.0
2.799999952316284 0.0 0.0
2.700000047683716 0.0 0.0
2.5999999046325684 0.0 0.0
2.5 0.0 0.0
2.4000000953674316 0.0 0.0
2.299999952316284 0.0 0.0
2.200000047683716 0.0 0.0
2.0999999046325684 0.0 0.0
2.0 0.0 0.0
1.899999976158142 0.0 0.0
1.7999999523162842 0.0 0.0
1.7000000476837158 0.0 0.0
1.600000023841858 0.0 0.0
1.5 0.0 0.0
1.399999976158142 0.0 0.0
1.2999999523162842 0.0 0.0
1.2000000476837158 0.0 0.0
1.100000023841858 0.0 0.0
1.0 0.0 0.0
0.8999999761581421 0.0 0.0
0.800000011920929 0.0 0.0
0.699999988079071 0.0 0.0
0.6000000238418579 0.0 0.0
0.5 0.0 0.0
0.4000000059604645 0.0 0.0
0.30000001192092896 0.0 0.0
0.20000000298023224 0.0 0.0
0.10000000149011612 0.0 0.0
0.0 0.10000000149011612 0.0
0.0 0.20000000298023224 0.0
0.0 0.30000001192092896 0.0
0.0 0.4000000059604645 0.0
0.0 0.5 0.0
0.0 0.6000000238418579 0.0
0.0 0.699999988079071 0.0
0.0 0.800000011920929 0.0
0.0 0.8999999761581421 0.0
0.7496038675308228 0.5164291858673096 0.0
1.3451675176620483 0.5190238952636719 0.0
1.9462687969207764 0.4963642954826355 0.0
4.456614971160889 0.5060901641845703 0.0
3.864220380783081 0.4866538345813751 0.0
3.249823808670044 0.482722669839859 0.0
2.6500000953674316 0.5 0.0
0.3810288906097412 0.399004191160202 0.0
2.308779239654541 0.3797946870326996 0.0
1.0499999523162842 0.6625000238418579 0.0
1.644740104675293 0.6598879098892212 0.0
4.150000095367432 0.3375000059604645 0.0
3.555316209793091 0.3343118131160736 0.0
2.9446933269500732 0.3401789665222168 0.0
1.6342840194702148 0.3290160894393921 0.0
1.0591840744018555 0.33908534049987793 0.0
2.9654481410980225 0.6753292679786682 0.0
3.5534629821777344 0.6835107207298279 0.0
4.153462886810303 0.6835107207298279 0.0
2.2139804363250732 0.6805098056793213 0.0
0.4914395809173584 0.6739721894264221 0.0
4.691666603088379 0.6916666626930237 0.0
4.691666603088379 0.3083333373069763 0.0
2.4872219562530518 0.7236665487289429 0.0
0.6240421533584595 0.2677222192287445 0.0
2.0697431564331055 0.2657754421234131 0.0
2.5389034748077393 0.26082900166511536 0.0
0.8147311806678772 0.7450684309005737 0.0
1.2897310256958008 0.743314266204834 0.0
1.8853894472122192 0.7450258731842041 0.0
4.382374286651611 0.23655959963798523 0.0
3.910269021987915 0.25668570399284363 0.0
3.1838724613189697 0.25397706031799316 0.0
1.398239254951477 0.2614254057407379 0.0
3.201760768890381 0.7385746240615845 0.0
3.8017609119415283 0.7385746240615845 0.0
4.39177942276001 0.7466779351234436 0.0
0.25301694869995117 0.7458874583244324 0.0
2.7258167266845703 0.7600342631340027 0.0
0.84163498878479 0.2263137847185135 0.0
0.22429518401622772 0.22429518401622772 0.0
2.7605957984924316 0.22504857182502747 0.0
1.8330284357070923 0.2150011658668518 0.0
0.2192869633436203 0.5323538780212402 0.0
4.7908525466918945 0.5038931369781494 0.0
2.466000556945801 0.5376454591751099 0.0
3.7061264514923096 0.17723728716373444 0.0
3.3929696083068848 0.20266839861869812 0.0
1.4905184507369995 0.7937026619911194 0.0
1.2104878425598145 0.20361483097076416 0.0
3.9895122051239014 0.7963851690292358 0.0
3.389512300491333 0.7963851690292358 0.0
0.5652223825454712 0.5070380568504333 0.0
0.44509074091911316 0.19716571271419525 0.0
2.1318352222442627 0.5042122602462769 0.0
1.548349142074585 0.4954715371131897 0.0
3.050636053085327 0.5004673004150391 0.0
0.9511125087738037 0.498258113861084 0.0
3.651650905609131 0.5045284628868103 0.0
4.248488903045654 0.4980509281158447 0.0
1.1537858247756958 0.49593159556388855 0.0
4.050199031829834 0.49993085861206055 0.0
3.464722156524658 0.509624183177948 0.0
1.749653697013855 0.5001751780509949 0.0
2.851828098297119 0.5057260394096375 0.0
2.359710216522217 0.1888567954301834 0.0
2.0499017238616943 0.8199846148490906 0.0
0.6430503129959106 0.8181284070014954 0.0
4.560274600982666 0.1724673956632614 0.0
4.55863094329834 0.8299665451049805 0.0
2.321284055709839 0.8242537379264832 0.0
4.815218925476074 0.8345447778701782 0.0
4.837246894836426 0.16590170562267303 0.0
0.9682294130325317 0.8331464529037476 0.0
1.730908751487732 0.827606201171875 0.0
4.220076560974121 0.17516615986824036 0.0
3.02066969871521 0.18326662480831146 0.0
1.5634372234344482 0.17044226825237274 0.0
3.035303831100464 0.8294908404350281 0.0
3.627507209777832 0.8360387086868286 0.0
4.2312469482421875 0.8315803408622742 0.0
4.618130683898926 0.5361976027488708 0.0
0.40311703085899353 0.8369210362434387 0.0
1.1473191976547241 0.8458209037780762 0.0
4.052680969238281 0.15417908132076263 0.0
2.020958423614502 0.6394158005714417 0.0
0.662188708782196 0.6447370648384094 0.0
4.5115838050842285 0.3538685142993927 0.0
1.0221220254898071 0.15309639275074005 0.0
0.3837882876396179 0.5515117049217224 0.0
3.548090934753418 0.15800617635250092 0.0
1.4348299503326416 0.6465393304824829 0.0
3.765170097351074 0.3534606993198395 0.0
3.3348300457000732 0.3534606993198395 0.0
1.2546738386154175 0.36384353041648865 0.0
3.945326089859009 0.636156439781189 0.0
3.3412928581237793 0.637225866317749 0.0
2.1904795169830322 0.17066854238510132 0.0
0.16392111778259277 0.38331863284111023 0.0
2.87723445892334 0.8265392184257507 0.0
4.8459792137146 0.6499902606010437 0.0
4.845625400543213 0.34837812185287476 0.0
2.771622896194458 0.38129922747612 0.0
4.5222978591918945 0.6578375697135925 0.0
2.604464530944824 0.8240283727645874 0.0
1.8544400930404663 0.3751189708709717 0.0
0.8566747903823853 0.38255012035369873 0.0
2.2932615280151367 0.5369129776954651 0.0
2.620572805404663 0.6496497392654419 0.0
0.7172287106513977 0.1490369737148285 0.0
0.1410960853099823 0.8303417563438416 0.0
1.7142322063446045 0.142862930893898 0.0
2.6314175128936768 0.14492936432361603 0.0
1.9832650423049927 0.1408119648694992 0.0
2.445650577545166 0.370038241147995 0.0
2.885042667388916 0.1455758661031723 0.0
0.13937503099441528 0.6546638011932373 0.0
0.9110832810401917 0.6349053978919983 0.0
3.088575839996338 0.3613528311252594 0.0
4.296638011932373 0.3563385307788849 0.0
1.1930090188980103 0.6355591416358948 0.0
1.788455843925476 0.6387236714363098 0.0
4.006990909576416 0.3644408583641052 0.0
1.4459187984466553 0.39242905378341675 0.0
4.354081153869629 0.6075709462165833 0.0
3.7540812492370605 0.6075709462165833 0.0
3.1591691970825195 0.6018876433372498 0.0
2.7615907192230225 0.6205627918243408 0.0
2.36276912689209 0.6735464930534363 0.0
1.3681535720825195 0.8630191683769226 0.0
3.8318464756011963 0.1369808316230774 0.0
3.275517463684082 0.10712132602930069 0.0
0.5630941987037659 0.12814241647720337 0.0
1.3237862586975098 0.10638008266687393 0.0
3.2733232975006104 0.8705052733421326 0.0
3.8733232021331787 0.8705052733421326 0.0
2.0396511554718018 0.38928428292274475 0.0
2.2168734073638916 0.8508136868476868 0.0
0.5163488388061523 0.3409615159034729 0.0
0.6547463536262512 0.3955095112323761 0.0
1.9480526447296143 0.8710126876831055 0.0
4.689375877380371 0.13700176775455475 0.0
4.698264122009277 0.8675068616867065 0.0
0.7578787803649902 0.8698469996452332 0.0
2.479548454284668 0.13692785799503326 0.0
2.4562506675720215 0.8735422492027283 0.0
2.171211004257202 0.3573116958141327 0.0
3.5117530822753906 0.853193998336792 0.0
4.107914924621582 0.8658969402313232 0.0
2.640726327896118 0.354434996843338 0.0
4.346996307373047 0.1279495507478714 0.0
0.3128283619880676 0.11246757209300995 0.0
0.136248379945755 0.12152919173240662 0.0
4.453908443450928 0.8629162907600403 0.0
1.6064813137054443 0.8679171800613403 0.0
0.3380795121192932 0.6626779437065125 0.0
0.5102446675300598 0.875635027885437 0.0
0.7425088882446289 0.2989330589771271 0.0
3.1349449157714844 0.10448489338159561 0.0
1.3287748098373413 0.6181886196136475 0.0
3.871795415878296 0.38215625286102295 0.0
3.229135036468506 0.3810797333717346 0.0
0.28971707820892334 0.8759857416152954 0.0
0.9214505553245544 0.11992674320936203 0.0
1.9219478368759155 0.6237660050392151 0.0
1.530794620513916 0.29603153467178345 0.0
3.072223663330078 0.7044162750244141 0.0
3.6722235679626465 0.7044162750244141 0.0
[...]
POINT_DATA 715
SCALARS Psi double
LOOKUP_TABLE default
0.0
0.0
1.0
1.0
1.0
1.0
1.0
1.0
1.0
1.0
1.0
1.0
1.0
1.0
1.0
1.0
1.0
1.0
1.0
1.0
1.0
1.0
1.0
1.0
1.0
1.0
1.0
1.0
1.0
1.0
1.0
1.0
1.0
1.0
1.0
1.0
1.0
1.0
1.0
1.0
1.0
1.0
1.0
1.0
1.0
1.0
1.0
1.0
1.0
1.0
1.0
1.0
1.0
0.9195134909111744
0.8664729579317132
0.7656969689295595
0.6288896161131801
0.4703913123037084
0.3108035838332872
0.17217223176978025
0.07018732550975056
0.018430838162792215
0.0
0.0
0.0
0.0
0.0
0.0
0.0
0.0
0.0
0.0
0.0
0.0
0.0
0.0
0.0
0.0
0.0
0.0
0.0
0.0
0.0
0.0
0.0
0.0
0.0
0.0
0.0
0.0
0.0
0.0
0.0
0.0
0.0
0.0
0.0
0.0
0.0
0.0
0.0
0.0
0.0
0.0
-0.0
0.0
0.0
0.0
0.0
0.0
0.0
0.027348945649237753
0.10769472639720146
0.20923027064986477
0.3108736014410078
0.4124641712124282
0.5108187857427081
0.6026377131217728
0.6784506644736297
0.6416407575601507
0.5300713868945656
0.5436203660691562
0.5006217702157122
0.4948037444684636
0.470534527170278
0.47036693266854535
0.508119030625638
0.3204052650045967
0.30585781855713207
0.7747681082738441
0.7665017678343627
0.22681924022809574
0.222415442096255
0.2427961188379285
0.22693804196441927
0.2548712155955359
0.7930249666670424
0.7928280034329087
0.7908906687608893
0.7982629019258833
0.7598880833063364
0.7876758608798033
0.17502054938125555
0.8544443410584589
0.1568389548612228
0.1429455395158389
0.13731362698150457
0.8816153782412777
0.8776454844097732
0.8765635531477063
0.0906452667888521
0.12161326056370524
0.12155712596364612
0.13534671351243116
0.8701181842143697
0.865517839434715
0.8706293212427568
0.7934739490253995
0.9004057509208803
0.11060186667047116
0.11127122236018389
0.09402802192639871
0.081692732047664
0.46456824096254434
0.4794644155369767
0.5719183147980907
0.039719646970446616
0.06206171183281508
0.9299557981035195
0.06977495018786967
0.9275018576415341
0.9276189294886397
0.49545775294159966
0.07117518036911699
0.514618600275577
0.501271589834247
0.5055729677290929
0.5098946356994236
0.502164823719313
0.48602113513187034
0.5069685178169228
0.49194122052554023
0.5124058433632037
0.5075570569543068
0.5176104554314578
0.056202365011626086
0.953811467245817
0.9590470106954047
0.03634839902684585
0.9542544602416562
0.9594973930222341
0.9430520821836281
0.027559827626663137
0.9639140465413395
0.9568836564662173
0.039932761745225295
0.05119213654636578
0.04066402019107297
0.9655624429871714
0.9620753303831452
0.9591009504424296
0.541065626984595
0.9786723023056174
0.9709321949548474
0.029482972765256826
0.7353098186741722
0.7344623694620955
0.24295804709538585
0.036796480744162925
0.5292901403039508
0.028778895924599254
0.7489961797205817
0.2507485865533088
0.2545806370385844
0.2870032766542542
0.7197927046917484
0.7253595228838461
0.04341446737151747
0.2947967069387503
0.9645772579945725
0.7161961511107993
0.22528946792565296
0.3087998658680777
0.745297437309801
0.9599660231800508
0.2982087623560278
0.3223251145485938
0.5700874039040377
0.7545795413432433
0.037262649533980896
0.8225966691223823
0.0253512435493836
0.02650370833072067
0.024639434313971652
0.2911438985593778
0.025661314871231963
0.5837989296797157
0.7317000772375991
0.2731085218044829
0.25169364348489215
0.7338421105679033
0.733497688518865
0.2690328457894189
0.3294594444937752
0.6690975317421038
0.6748879003442639
0.6739527356632855
0.7091632028050839
0.786740757908466
0.9791931578330548
0.01750588075102319
0.0018822329043410718
0.0212626514391444
0.0011064337767073159
0.9816514505242664
0.9827185378121787
0.321774578176935
0.9761305521211902
0.24963501332471397
0.33449117921431415
0.9853587838069827
0.019380256504991887
0.9791488149928455
0.9849561290557216
0.022690497026036534
0.9841925793437719
0.2709575901595468
0.970292844540324
0.9807462886235362
0.26731916212325973
0.00572799881644572
0.006011388361403758
0.022589952239250182
0.9777602566156635
0.9812220236157045
0.6942345165732207
0.9922280134839084
0.19998847479848597
0.00305229958941647
0.7057693434040793
0.2969274302003558
0.3012026571671614
1.018756931507967
0.021836864888477116
0.7100387395363634
0.18101160003800915
0.830458706421862
0.8205224849097135
0.8177129486290571
1.0057336542251432
0.6891971141296794
0.004116866682256231
0.9948182681816051
0.9943967205138491
0.15506177705049234
0.3227933275510313
0.1812374617355553
0.995762522654012
0.003644595420584565
0.8691525597962311
0.2912074143481212
0.12751017512538826
0.34094407627839163
0.011359601222882338
0.16199681600118115
0.9905623959345375
0.9901126143328274
0.12388141156303188
0.1893343568162138
-0.001532367277395347
0.43928895566523796
-0.003337933877740034
0.4047655052748252
0.18982997940832264
-0.0037130430610951767
0.0008113716566985259
0.4106362471557526
0.42592702606815
0.41447719361891916
0.5925671102186045
0.5911802622310507
0.003131857369918759
0.552642587041443
0.0016285379270648333
0.6947473096300883
0.12639203975213992
0.6021283424789525
1.001062153598448
0.8079938914557975
0.17323482502985602
0.8052439520508836
0.181200977253243
0.19991850042434475
0.8172242781764323
0.9983435708778081
0.0016411025715970644
0.1307616462247252
0.8665632611617418
0.13206500608290894
0.3305115131249917
0.6197841641884847
0.8298116808166165
0.10314379368191622
0.40812988446042014
0.416737601664761
0.610676116568213
0.5997400550143009
0.5944789369427058
0.020348742804267666
0.6538767042584478
0.137427265464722
0.8671878870652877
0.864262200596376
0.5958989291163725
0.40881007391789176
0.4220915020183336
0.003849128027938521
0.58974343523292
0.8686975289703697
0.13293121073817943
1.0063227220598854
0.19253767903666294
0.5743215015543216
0.6579469361670963
0.4055686171533741
0.8631904855535358
0.5815439447792304
0.999196380656323
0.44974862070840077
0.9885529376072034
0.9876833109253957
0.8965309833487082
0.8673494933123438
0.9585886328976668
0.005790322095768534
0.4240156232954856
0.7081563793237433
0.5768061842208546
0.6828015658844674
0.3651905203478846
0.10242190890229304
-0.0013925232761889963
0.44039892518816853
0.2114402529560305
0.8409135455327464
0.5648237944078053
0.44187830591947147
0.4463967127098878
0.8513456765381893
0.8766001106536147
0.1358056181728178
0.12153195695434338
0.869167759407378
0.4085984436634706
0.9990504221760422
0.14237870316144102
0.9064257207208989
0.9078643991075704
0.35519318779069037
0.9178472574758081
1.0040491057366747
0.1125509169344067
0.14105198726018578
0.679208122114779
0.3238051976410669
0.6801767834032522
0.6894862748141857
0.084050119976794
0.6698472221154987
0.33446496833848877
0.33369370208078764
0.006507242453805467
0.4718791990185883
0.26237422665499954
0.7408650112007964
0.7663894437848864
0.33898718237424946
0.8774430476787702
0.6682513142137231
0.6649134301790913
0.6375430747533783
0.007539734989208012
0.007449032692565065
0.12850344699381322
0.8253914070081144
-0.0030581583228345035
0.9160106773691723
0.9162768178155133
0.8497787225509134
-0.0033504785257184736
-0.002697275367208433
0.1901404577759526
0.34036594682387444
0.000357651666107254
1.000412972958345
0.33699254749839247
0.8887821857515228
1.0001541441333668
0.8834826694210262
0.11881891275220245
1.0057734161301137
-0.0013254421342221146
0.10117584321994519
0.9955606242646146
-0.00039738432178186757
0.3175406712269845
0.0005932965441025365
0.6930713496955776
0.003663509788319446
1.001909680233891
1.0043901705974698
0.11101055626028346
0.4931455487483993
0.14898133655444612
0.9977592247394974
0.8867195332868565
0.9988939595509713
0.3264792511065091
0.999375648172343
1.0027988012903768
0.13331618877493612
0.0874020440716368
9.89900355497813e-05
0.27849917550139414
0.6485361329170259
0.5856627071752979
0.4122540484872885
0.5647645507027214
1.0039910323620722
0.25554015497479365
0.5725433481187007
0.9999252224292231
0.00036880032217529314
-0.0012677154758377392
0.1936414561101494
0.40715765393971487
0.5774345282639827
-0.0017952015267596526
0.9223584519406821
1.0051696878809318
0.8847991416550118
0.09054027762527221
0.9150311779053325
0.9095641248858222
0.6335125163100169
0.07648300119132194
0.8971846338300477
-0.0018972774185125165
0.2765478115204017
0.0026466199199564884
0.9331365718745189
0.06653415435702395
-0.0014567800471040305
0.588648784372775
0.5399685846999462
1.0041943430865021
1.0154459072486275
1.0014316680574091
0.0013142020297718872
0.43319031225083815
0.6801707300706274
0.6879576564564042
0.6822510353376493
0.31949335048687144
0.31576657531951796
0.32813413236622446
0.9441261150521896
1.0353795300508921
0.9973887746301638
0.9947919945238942
0.9635015005395984
0.6847775349095677
0.7573311096714328
-0.0018926881255634106
0.06494527945555627
0.7910110226971719
0.7077200488979911
0.22814112111334298
0.8726693856167054
0.08335769652457614
0.07515377839862972
0.7187518306977598
0.6225850468041154
0.4344824803787415
0.9980587085268389
1.0011557437270784
0.7760524211392437
0.10035490941892478
0.9314953844699284
0.20943793440526143
0.9525158983566175
0.05238650465094005
1.0003143084121346
0.002153499481881288
0.3654739993097806
0.6136658483938351
0.3587914618389706
0.8332937303056249
0.041170089958921
0.591335445110473
0.3755272654512447
0.8395251606262177
-0.0011336822847748539
-0.003429020546839297
0.1894490019063613
0.17249401509145543
0.05591012501512341
0.1031649309892013
0.9457115181183814
0.8419724816625236
0.159151841128163
0.8016898088509186
0.20318333066214228
0.9068481126141729
0.9046774749252502
0.9038107856200597
-0.004542194543305582
0.941459896256711
0.35873087399794634
0.2154022261083943
1.0004430470042047
0.16794953455210657
0.5580575442477572
0.7155606214185442
0.6114691259901589
0.6411266782825293
0.04316873710892742
0.9526979852596872
0.9521963481040318
0.05462399927425739
0.696294865733803
-0.0061479443342932856
1.005731744509632
1.0036253509279995
0.036850643673644476
0.040548836375097846
0.8957019146509267
0.2519200147201098
0.9487623603348664
0.4502328534122504
0.860519504463156
-0.00039829982830939456
0.6446844724460639
0.3553092246565703
0.36496548547580454
1.001098602385457
-0.0020696690310916576
0.5573403916988057
-0.007555554321678431
0.41321455636899285
0.06738952723455509
-0.0011414172494109973
0.23320627419198423
0.6273839977079794
0.720312712450244
0.7849480168771419
0.9501440566443405
0.047421322293437033
0.23984999371791646
0.18337285894350064
0.7698405703348229
1.004390214274803
0.23313103575571376
0.06764548578481269
0.18371136219591663
0.05284498365039318
0.9305225822344418
0.046134129998901416
0.20937312904852678
0.7888048622448361
0.793148354850413
0.8010671840052321
0.40768006752738456
1.0058766964688772
0.3697525529344399
0.9182665536878541
-0.0011793703388889019
0.05021476102429139
0.03907884204239833
0.5961284584692261
0.06955244264232308
0.0020975112524077885
0.05988042042982488
0.08157785900255266
0.41159842891107684
0.5632244779029635
0.029493040684635218
0.19195973867164398
-0.001822337436031669
1.0000543376343318
0.9189227295269576
0.4338061113266497
0.5719144586234569
0.6274372182274273
0.9393261912013875
0.05100167271022945
0.04980571843873275
0.9982432655518713
0.030180027977532088
0.5060818380126876
0.3234867079493755
0.11870290760894893
-0.000775249137052978
0.7917851448307639
0.949450904314547
0.14352552100443608
0.12531726939575163
0.8545559713820734
1.0017230966938822
0.0447139287874558
0.9440913352900578
0.9439808209490849
0.4438589928376846
0.4429136354749283
1.0007605410767606
0.2141768575655163
0.3346769766344442
0.37481623286099
0.0002611127302433248
0.9682516734673218
0.9689489151633669
0.24455526185337295
0.5990656602371519
0.834387845040288
0.8359281342263251
0.1888991445266842
0.8309403552703272
0.2305810594948663
0.8832778612891092
0.8823369990035114
0.6197065844498246
0.8947638719146837
0.6200085088822989
0.050973449131621176
0.9505924352570287
0.39122999625654076
0.623570139178363
0.3769281068778339
-0.0071061955983112175
0.31269666059753476
0.05683110511799765
-0.00043101867090666104
0.5690941252162439
0.11510769804754076
0.22028913599709604
0.0860943723872353
0.8003115507717828
0.8744996456582088
0.9760285067987275
0.5847502909223536
0.0032574015195658656
0.4038561853769606
0.07769979031575465
0.9991904806058596
1.0001714568288986
-0.0009067578921435517
0.057928811114549485
0.9466884287812964
0.00041454158103933653
-0.004055462254811808
0.23336506827628895
0.768466079299152
0.43686465980414807
1.002758947176746
0.22167415248676717
0.820524838353621
0.19647996146406219
0.8093195342014613
0.19051307557730038
0.9786928181334881
0.0016181594505607828
0.40711507761199744
1.0008862089959865
0.9587273579328169
0.042747486060570286

SCALARS Omega double
LOOKUP_TABLE default
-7.67649056242809
-1.1814217122663908
8.58556298907577
15.92019305617438
36.51091670367347
-6.477753903040663
2.423271312381727
-4.464703599322365
-0.42782316932126263
1.9235676539326207
0.04830583019606726
-0.6367118501405025
0.48526151364093495
1.1462862124995714
0.2318831268542133
0.8262855987023707
0.5476164835654217
0.7962018050238018
1.5583445574239176
-0.08696406454246158
1.4180979632284205
1.2463117782818582
-0.40964511017913213
0.4922407090626619
1.0677033624281915
1.0390964906930198
0.7638498578293704
0.24024792633746883
0.46076906907564447
1.4191516273228713
1.107098281305802
0.16108445832038232
1.3296668882464282
0.8622730134733722
0.415873143850834
1.1147948796903087
0.7544317230912694
0.37866876906738417
1.3064603138856763
0.6778406151526124
1.3712268908520122
0.689004449680773
0.4355724287548505
0.35033561532445334
0.9351468919809943
0.7190544048796175
2.1046364228255805
0.4617184306123435
-0.45529611013441923
2.1452636977041712
0.8624139606984526
1.8513261597956452
9.574511359916885
-7.866253305954432
0.5805182845532931
2.893706101986392
1.6573841254253396
-0.10650077772650811
-1.184981728183819
-2.6725861756271954
-3.324540631083477
-1.5327116292374472
-0.25216508722186626
-0.6469309510115234
-1.0512724131901598
-0.14197376845421586
-0.7013199804528936
-0.38489783031426533
-1.0660406607670792
-0.818020700791949
-0.31119745099766466
-0.719089835118162
-0.458445098031996
0.09630382626831524
-1.7611130676289906
-0.649558144197727
0.3869612126151557
-1.4864740610242375
-0.5980678793778702
-0.3036046244830743
-1.101070599607912
-0.8051734617410922
-0.4287496311853738
-1.0996111458614772
-0.8837455759014206
-1.4100525639346642
-0.17678118790525899
-0.562520463665198
-0.9662560636651777
-1.0789745720591801
-0.7449086651777074
0.6830664838928766
-1.3957165301048082
-1.2257233927463416
0.20211697936381642
-0.8514891427473223
-1.1192009454163045
-0.16238545346440778
-0.5574099585790852
-1.5260824032021498
-1.5307515402936582
-0.39308253895454237
-1.9060057471280194
-0.48588363889676395
-2.0720766830435298
-0.4987540045181607
-0.1399354516919731
-2.0694753317259362
-1.9109471258848518
-0.8190296774044221
0.7511265808074025
-4.592711330813841
2.6458103588597512
0.31204333547351387
-0.025399728532297102
-0.8569630448436006
1.6497900825598388
-5.889255834278352
-2.3403920821320914
-42.60834785385417
-0.5123659793555498
0.5160371032624219
0.10204779155838588
-0.06343584941119704
-0.2779967954303887
-0.2908660401463548
0.10776896383754134
-0.3761300565172159
-2.031429045210551
3.1287722519566574
2.878188144625062
-2.974631892395397
-2.984164686601376
-2.748663029883589
-2.8528864794902415
-2.0454852659642606
3.1718744491994664
3.214975907357318
3.1837282618705545
3.179955002554732
2.3172111535602813
3.217316789146337
-3.6049795668794276
3.9988885670808183
-2.5860771602216515
-4.187814667811909
-4.168214954764602
5.21577842864085
4.355953886210894
4.177704637829076
-4.845056950459274
-4.457069783064076
-4.3428439125977425
-4.100537350360672
4.340879220368629
4.1579817333466425
4.388136179788562
1.9688180946416216
4.662416292526714
-3.9676696996498597
-1.7028445448925769
-4.7561839946573246
-5.080349755993953
-1.4216893309004284
-0.2195487743875028
0.7672678769244319
-6.279080311758605
-5.441745484794124
5.05169256431478
-5.152234074068515
5.258766781851815
5.082731700638175
-1.264090838094955
-4.899433876809821
0.2211066217569328
0.1350850346478333
0.06336123052962775
-0.17005965110064206
0.047979315189996694
-0.1495492337157353
0.06502830546895434
-0.07153464905174307
0.1478811223312631
0.19583864770790657
0.19627431059895775
-5.595762445736379
5.374051952287095
7.331853792035087
-5.743386365224868
5.828625390193088
5.867210054084768
6.137926621081174
-5.3090325497791
5.641073590264147
5.241309944839899
-5.577266054747156
-5.4461008386803424
-6.384393202158013
6.50803043839267
5.600994765774878
5.724577389801073
0.40767432246457247
13.251650428470876
5.600686662591938
-5.537195323393699
2.4945560431680356
2.2674448148899686
-2.734916430331526
-5.439341505152044
-2.341033583350664
-5.890624843637408
2.7095825901377033
-2.6506165545869425
-2.6030128486353554
-1.8809123195759516
2.3234300949510636
2.4248971105627777
-5.556488085203242
0.08635129132723801
6.058151189338446
2.0836653288463243
-2.5970504329963746
-1.9962854239540821
2.631928384545064
5.630584938567662
-2.0422232975542625
-1.2681483116027306
0.7605527449285324
2.717903563610243
-6.1104093501312455
-1.866333094779998
-6.132609458979977
-6.036711328450942
-6.2402856619666345
-2.205359317982943
-6.080489812934733
-4.5180549097496705
2.4878287993377963
-2.394582600712407
-2.658805106358352
2.5642970202504367
2.4930332742030767
-2.4693460411016144
-1.5502636328087782
1.7693405740683863
1.8610165938104375
1.825937231608492
2.213456684604289
3.1117241034107335
5.7020433391632945
-6.447472048688318
-7.398288151631924
-6.64140331427344
-8.337698538278532
6.222184228312387
6.7362285810798355
-1.8092096297260312
6.640786777941017
-0.9136133246413014
-1.006943017753653
6.5338354781457895
-5.273703799233829
7.880242121117752
6.006225472586123
-6.024672147356309
5.580650420255442
-2.428210462809788
5.570428506038939
6.917781664608355
-2.479075490440663
-8.263475936136794
-10.849627086492818
-8.805215077475
6.4712403471471935
5.738547234592984
-1.0357414660105895
7.100503133919515
-2.1678308538050834
-7.709003532081582
2.2348373926369223
-2.134489825699634
-2.0894837917832914
23.702505524359164
-6.214809428600435
2.241647966302656
-3.471947581738153
3.7191241268375737
3.5201954503347093
3.5248405437006562
7.450893690624576
1.6267363195655993
-8.213631721180972
8.223139694796538
6.790133952761386
-1.4502506065337806
-1.8629506749648361
-3.548539047991107
6.684557115773294
-6.594393762247488
4.1908659562964585
-2.2090254485320955
-3.7599856894576087
-0.4460085271265879
-6.196586514757448
3.282487478895569
7.427075796965957
5.573447049804964
-4.360883076251206
-3.420874714835859
-9.95351384032254
-0.5928086715053184
-7.885003917180615
-1.407137704581216
-3.3971503588089442
-8.535984832433211
-7.72708848893666
-0.9163726390013572
-0.7457532770311545
-0.8551740029918444
0.776760974884706
1.0281954553004387
-7.087350070678726
1.5081356313849534
-9.011710258594533
2.0686598287342215
-4.26976592117892
-4.13263428367248
9.345676307470866
3.4160769410218768
-3.1135603496359323
3.3915706086765636
-3.5034411415236675
-3.287057712751948
3.4781969911121524
6.7070869658048275
-6.295326889346531
-4.300177489239961
4.156967433741129
-4.185353523415319
-1.2839142770915026
1.2349014467142345
6.294771584160326
-10.006843159189172
-0.785564933292971
-0.7307204804156653
1.14392842448507
1.0605103135842362
0.9727774649512272
-6.702177262143249
-8.023517133587493
-3.908915750366441
4.257088741281293
4.1567096570109925
0.9931395775697883
-0.9248490252928775
-0.785465897815581
-8.577208153546012
1.0032877578287085
4.409625451457859
-4.196495754984591
9.349909239485596
-3.385854926380088
-0.44023632285679054
0.2050120772904628
-0.9820629344064434
4.028857575432412
0.24151826631812473
8.353880002799325
-0.4688473024487518
6.461300051048758
6.069804684341083
4.547242786752846
5.499134260166903
2.517876043681173
-7.385303380213969
-1.288639485357558
2.182242609599419
0.8586223447820737
1.9279367449475298
-2.3527388551969928
-4.638838632016529
-10.004268155970447
-0.6243706195059434
0.7356129621359262
3.733542761008588
0.7412270822501617
-0.5707480647848668
-0.5316016309688931
5.4862924438010205
4.904079950824927
-4.122292740480119
-4.272974707560419
4.058630713548179