# vtk DataFile Version 1.0
2D Simulation C++
ASCII
DATASET UNSTRUCTURED_GRID
FIELD FieldData 1
NODES 1 2 int
715 1308

POINTS 715 double
0.0 0.0 0.0
5.0 0.0 0.0
5.0 1.0 0.0
0.0 1.0 0.0
0.10000000149011612 1.0 0.0
0.20000000298023224 1.0 0.0
0.30000001192092896 1.0 0.0
0.4000000059604645 1.0 0.0
0.5 1.0 0.0
0.6000000238418579 1.0 0.0
0.699999988079071 1.0 0.0
0.800000011920929 1.0 0.0
0.8999999761581421 1.0 0.0
1.0 1.0 0.0
1.100000023841858 1.0 0.0
1.2000000476837158 1.0 0.0
1.2999999523162842 1.0 0.0
1.399999976158142 1.0 0.0
1.5 1.0 0.0
1.600000023841858 1.0 0.0
1.7000000476837158 1.0 0.0
1.7999999523162842 1.0 0.0
1.899999976158142 1.0 0.0
2.0 1.0 0.0
2.0999999046325684 1.0 0.0
2.200000047683716 1.0 0.0
2.299999952316284 1.0 0.0
2.4000000953674316 1.0 0.0
2.5 1.0 0.0
2.5999999046325684 1.0 0.0
2.700000047683716 1.0 0.0
2.799999952316284 1.0 0.0
2.9000000953674316 1.0 0.0
3.0 1.0 0.0
3.0999999046325684 1.0 0.0
3.200000047683716 1.0 0.0
3.299999952316284 1.0 0.0
3.4000000953674316 1.0 0.0
3.5 1.0 0.0
3.5999999046325684 1.0 0.0
3.700000047683716 1.0 0.0
3.799999952316284 1.0 0.0
3.9000000953674316 1.0 0.0
4.0 1.0 0.0
4.099999904632568 1.0 0.0
4.199999809265137 1.0 0.0
4.300000190734863 1.0 0.0
4.400000095367432 1.0 0.0
4.5 1.0 0.0
4.599999904632568 1.0 0.0
4.699999809265137 1.0 0.0
4.800000190734863 1.0 0.0
4.900000095367432 1.0 0.0
5.0 0.8999999761581421 0.0
5.0 0.800000011920929 0.0
5.0 0.699999988079071 0.0
5.0 0.6000000238418579 0.0
5.0 0.5 0.0
5.0 0.4000000059604645 0.0
5.0 0.30000001192092896 0.0
5.0 0.20000000298023224 0.0
5.0 0.10000000149011612 0.0
4.900000095367432 0.0 0.0
4.800000190734863 0.0 0.0
4.699999809265137 0.0 0.0
4.599999904632568 0.0 0.0
4.5 0.0 0.0
4.400000095367432 0.0 0.0
4.300000190734863 0.0 0.0
4.199999809265137 0.0 0.0
4.099999904632568 0.0 0.0
4.0 0.0 0.0
3.9000000953674316 0.0 0.0
3.799999952316284 0.0 0.0
3.700000047683716 0.0 0.0
3.5999999046325684 0.0 0.0
3.5 0.0 0.0
3.4000000953674316 0.0 0.0
3.299999952316284 0.0 0.0
3.200000047683716 0.0 0.0
3.0999999046325684 0.0 0.0
3.0 0.0 0.0
2.9000000953674316 0.0 0.0
2.799999952316284 0.0 0.0
2.700000047683716 0.0 0.0
2.5999999046325684 0.0 0.0
2.5 0.0 0.0
2.4000000953674316 0.0 0.0
2.299999952316284 0.0 0.0
2.200000047683716 0.0 0.0
2.0999999046325684 0.0 0.0
2.0 0.0 0.0
1.899999976158142 0.0 0.0
1.7999999523162842 0.0 0.0
1.7000000476837158 0.0 0.0
1.600000023841858 0.0 0.0
1.5 0.0 0.0
1.399999976158142 0.0 0.0
1.2999999523162842 0.0 0.0
1.2000000476837158 0.0 0.0
1.100000023841858 0.0 0.0
1.0 0.0 0.0
0.8999999761581421 0.0 0.0
0.800000011920929 0.0 0.0
0.699999988079071 0.0 0.0
0.6000000238418579 0.0 0.0
0.5 0.0 0.0
0.4000000059604645 0.0 0.0
0.30000001192092896 0.0 0.0
0.20000000298023224 0.0 0.0
0.10000000149011612 0.0 0.0
0.0 0.10000000149011612 0.0
0.0 0.20000000298023224 0.0
0.0 0.30000001192092896 0.0
0.0 0.4000000059604645 0.0
0.0 0.5 0.0
0.0 0.6000000238418579 0.0
0.0 0.699999988079071 0.0
0.0 0.800000011920929 0.0
0.0 0.8999999761581421 0.0
0.7496038675308228 0.5164291858673096 0.0
1.3451675176620483 0.5190238952636719 0.0
1.9462687969207764 0.4963642954826355 0.0
4.456614971160889 0.5060901641845703 0.0
3.864220380783081 0.4866538345813751 0.0
3.249823808670044 0.482722669839859 0.0
2.6500000953674316 0.5 0.0
0.3810288906097412 0.399004191160202 0.0
2.308779239654541 0.3797946870326996 0.0
1.0499999523162842 0.6625000238418579 0.0
1.644740104675293 0.6598879098892212 0.0
4.150000095367432 0.3375000059604645 0.0
3.555316209793091 0.3343118131160736 0.0
2.9446933269500732 0.3401789665222168 0.0
1.6342840194702148 0.3290160894393921 0.0
1.0591840744018555 0.33908534049987793 0.0
2.9654481410980225 0.6753292679786682 0.0
3.5534629821777344 0.6835107207298279 0.0
4.153462886810303 0.6835107207298279 0.0
2.2139804363250732 0.6805098056793213 0.0
0.4914395809173584 0.6739721894264221 0.0
4.691666603088379 0.6916666626930237 0.0
4.691666603088379 0.3083333373069763 0.0
2.4872219562530518 0.7236665487289429 0.0
0.6240421533584595 0.2677222192287445 0.0
2.0697431564331055 0.2657754421234131 0.0
2.5389034748077393 0.26082900166511536 0.0
0.8147311806678772 0.7450684309005737 0.0
1.2897310256958008 0.743314266204834 0.0
1.8853894472122192 0.7450258731842041 0.0
4.382374286651611 0.23655959963798523 0.0
3.910269021987915 0.25668570399284363 0.0
3.1838724613189697 0.25397706031799316 0.0
1.398239254951477 0.2614254057407379 0.0
3.201760768890381 0.7385746240615845 0.0
3.8017609119415283 0.7385746240615845 0.0
4.39177942276001 0.7466779351234436 0.0
0.25301694869995117 0.7458874583244324 0.0
2.7258167266845703 0.7600342631340027 0.0
0.84163498878479 0.2263137847185135 0.0
0.22429518401622772 0.22429518401622772 0.0
2.7605957984924316 0.22504857182502747 0.0
1.8330284357070923 0.2150011658668518 0.0
0.2192869633436203 0.5323538780212402 0.0
4.7908525466918945 0.5038931369781494 0.0
2.466000556945801 0.5376454591751099 0.0
3.7061264514923096 0.17723728716373444 0.0
3.3929696083068848 0.20266839861869812 0.0
1.4905184507369995 0.7937026619911194 0.0
1.2104878425598145 0.20361483097076416 0.0
3.9895122051239014 0.7963851690292358 0.0
3.389512300491333 0.7963851690292358 0.0
0.5652223825454712 0.5070380568504333 0.0
0.44509074091911316 0.19716571271419525 0.0
2.1318352222442627 0.5042122602462769 0.0
1.548349142074585 0.4954715371131897 0.0
3.050636053085327 0.5004673004150391 0.0
0.9511125087738037 0.498258113861084 0.0
3.651650905609131 0.5045284628868103 0.0
4.248488903045654 0.4980509281158447 0.0
1.1537858247756958 0.49593159556388855 0.0
4.050199031829834 0.49993085861206055 0.0
3.464722156524658 0.509624183177948 0.0
1.749653697013855 0.5001751780509949 0.0
2.851828098297119 0.5057260394096375 0.0
2.359710216522217 0.1888567954301834 0.0
2.0499017238616943 0.8199846148490906 0.0
0.6430503129959106 0.8181284070014954 0.0
4.560274600982666 0.1724673956632614 0.0
4.55863094329834 0.8299665451049805 0.0
2.321284055709839 0.8242537379264832 0.0
4.815218925476074 0.8345447778701782 0.0
4.837246894836426 0.16590170562267303 0.0
0.9682294130325317 0.8331464529037476 0.0
1.730908751487732 0.827606201171875 0.0
4.220076560974121 0.17516615986824036 0.0
3.02066969871521 0.18326662480831146 0.0
1.5634372234344482 0.17044226825237274 0.0
3.035303831100464 0.8294908404350281 0.0
3.627507209777832 0.8360387086868286 0.0
4.2312469482421875 0.8315803408622742 0.0
4.618130683898926 0.5361976027488708 0.0
0.40311703085899353 0.8369210362434387 0.0
1.1473191976547241 0.8458209037780762 0.0
4.052680969238281 0.15417908132076263 0.0
2.020958423614502 0.6394158005714417 0.0
0.662188708782196 0.6447370648384094 0.0
4.5115838050842285 0.3538685142993927 0.0
1.0221220254898071 0.15309639275074005 0.0
0.3837882876396179 0.5515117049217224 0.0
3.548090934753418 0.15800617635250092 0.0
1.4348299503326416 0.6465393304824829 0.0
3.765170097351074 0.3534606993198395 0.0
3.3348300457000732 0.3534606993198395 0.0
1.2546738386154175 0.36384353041648865 0.0
3.945326089859009 0.636156439781189 0.0
3.3412928581237793 0.637225866317749 0.0
2.1904795169830322 0.17066854238510132 0.0
0.16392111778259277 0.38331863284111023 0.0
2.87723445892334 0.8265392184257507 0.0
4.8459792137146 0.6499902606010437 0.0
4.845625400543213 0.34837812185287476 0.0
2.771622896194458 0.38129922747612 0.0
4.5222978591918945 0.6578375697135925 0.0
2.604464530944824 0.8240283727645874 0.0
1.8544400930404663 0.3751189708709717 0.0
0.8566747903823853 0.38255012035369873 0.0
2.2932615280151367 0.5369129776954651 0.0
2.620572805404663 0.6496497392654419 0.0
0.7172287106513977 0.1490369737148285 0.0
0.1410960853099823 0.8303417563438416 0.0
1.7142322063446045 0.142862930893898 0.0
2.6314175128936768 0.14492936432361603 0.0
1.9832650423049927 0.1408119648694992 0.0
2.445650577545166 0.370038241147995 0.0
2.885042667388916 0.1455758661031723 0.0
0.13937503099441528 0.6546638011932373 0.0
0.9110832810401917 0.6349053978919983 0.0
3.088575839996338 0.3613528311252594 0.0
4.296638011932373 0.3563385307788849 0.0
1.1930090188980103 0.6355591416358948 0.0
1.788455843925476 0.6387236714363098 0.0
4.006990909576416 0.3644408583641052 0.0
1.4459187984466553 0.39242905378341675 0.0
4.354081153869629 0.6075709462165833 0.0
3.7540812492370605 0.6075709462165833 0.0
3.1591691970825195 0.6018876433372498 0.0
2.7615907192230225 0.6205627918243408 0.0
2.36276912689209 0.6735464930534363 0.0
1.3681535720825195 0.8630191683769226 0.0
3.8318464756011963 0.1369808316230774 0.0
3.275517463684082 0.10712132602930069 0.0
0.5630941987037659 0.12814241647720337 0.0
1.3237862586975098 0.10638008266687393 0.0
3.2733232975006104 0.8705052733421326 0.0
3.8733232021331787 0.8705052733421326 0.0
2.0396511554718018 0.38928428292274475 0.0
2.2168734073638916 0.8508136868476868 0.0
0.5163488388061523 0.3409615159034729 0.0
0.6547463536262512 0.3955095112323761 0.0
1.9480526447296143 0.8710126876831055 0.0
4.689375877380371 0.13700176775455475 0.0
4.698264122009277 0.8675068616867065 0.0
0.7578787803649902 0.8698469996452332 0.0
2.479548454284668 0.13692785799503326 0.0
2.4562506675720215 0.8735422492027283 0.0
2.171211004257202 0.3573116958141327 0.0
3.5117530822753906 0.853193998336792 0.0
4.107914924621582 0.8658969402313232 0.0
2.640726327896118 0.354434996843338 0.0
4.346996307373047 0.1279495507478714 0.0
0.3128283619880676 0.11246757209300995 0.0
0.136248379945755 0.12152919173240662 0.0
4.453908443450928 0.8629162907600403 0.0
1.6064813137054443 0.8679171800613403 0.0
0.3380795121192932 0.6626779437065125 0.0
0.5102446675300598 0.875635027885437 0.0
0.7425088882446289 0.2989330589771271 0.0
3.1349449157714844 0.10448489338159561 0.0
1.3287748098373413 0.6181886196136475 0.0
3.871795415878296 0.38215625286102295 0.0
3.229135036468506 0.3810797333717346 0.0
0.28971707820892334 0.8759857416152954 0.0
0.9214505553245544 0.11992674320936203 0.0
1.9219478368759155 0.6237660050392151 0.0
1.530794620513916 0.29603153467178345 0.0
3.072223663330078 0.7044162750244141 0.0
3.6722235679626465 0.7044162750244141 0.0
[...]
POINT_DATA 715
SCALARS Psi double
LOOKUP_TABLE default
0.0
0.0
1.0
1.0
1.0
1.0
1.0
1.0
1.0
1.0
1.0
1.0
1.0
1.0
1.0
1.0
1.0
1.0
1.0
1.0
1.0
1.0
1.0
1.0
1.0
1.0
1.0
1.0
1.0
1.0
1.0
1.0
1.0
1.0
1.0
1.0
1.0
1.0
1.0
1.0
1.0
1.0
1.0
1.0
1.0
1.0
1.0
1.0
1.0
1.0
1.0
1.0
1.0
0.9195214103120213
0.8665018229062774
0.7657475268581623
0.6289422934655717
0.47042665500687414
0.31081474581723206
0.1721679371675129
0.07018162057591837
0.018429555227725006
0.0
0.0
0.0
0.0
0.0
0.0
0.0
0.0
0.0
0.0
0.0
0.0
0.0
0.0
0.0
0.0
0.0
0.0
0.0
0.0
0.0
0.0
0.0
0.0
0.0
0.0
0.0
0.0
0.0
0.0
0.0
0.0
0.0
0.0
0.0
0.0
0.0
0.0
0.0
0.0
0.0
0.0
-0.0
0.0
0.0
0.0
0.0
0.0
0.0
0.027348941620416196
0.10769471618384725
0.20923025393085057
0.31087357895443696
0.41246414478342036
0.5108187581272321
0.6026376870631696
0.678450642373825
0.6416407462290883
0.530071120396378
0.543619262697043
0.5006131988857492
0.4948696903193661
0.4705471754347366
0.47031289187094183
0.5080831961537895
0.32040520006965406
0.3058325500006595
0.7747676809617584
0.7664994793851778
0.22683757852357833
0.22237804683394582
0.2427388930412123
0.22693530921663127
0.25487069573863247
0.7930140534562966
0.7928311940262853
0.7909504535270179
0.7982570641784175
0.7598879796718117
0.7877370573584757
0.17502575191682476
0.8544407194345377
0.1568388358688051
0.14293597676534653
0.13728668526057425
0.8816152027095352
0.8776449479493291
0.876560746080152
0.090652409234454
0.12160827797775871
0.12152231521396731
0.13534579592951826
0.8701150244587065
0.8655394004717825
0.8706763247131167
0.7934739068170943
0.9004042831882618
0.11060167343773926
0.11127120725427778
0.09400132932212159
0.08169010314868966
0.46456819992908177
0.4795105573571572
0.5718959122357296
0.0397127239859165
0.06204627685063004
0.9299551539258141
0.06977462864535085
0.9275234512680279
0.9276214755526704
0.49545760220069396
0.07117514861677975
0.5146050696205664
0.5012693559601769
0.5055215708013051
0.5098941922757658
0.5021480432412734
0.48608242051415224
0.5069678275752497
0.49198388340483246
0.5123683434694202
0.5075524893481795
0.5175663810242739
0.056194829693713026
0.9538097756589944
0.959046955503105
0.03635010973034722
0.9542729923930888
0.959495835065845
0.9430711867826288
0.027558021217391246
0.9639139316784411
0.9568828525597438
0.039934881793691104
0.05117659143333755
0.04066348515708928
0.9655631349054886
0.9620790671276218
0.9591171422067255
0.5411307120640839
0.9786722798831747
0.9709320554386983
0.029482601075297824
0.7353036876705324
0.734462192717241
0.24298197876368907
0.036796362196990416
0.5292900613274385
0.02877319496503236
0.7489950042468319
0.25073102519122065
0.25452656724609385
0.28700242420027666
0.7198363317817397
0.7253426028908143
0.04341057061511681
0.29479668083140687
0.964577177169108
0.7162607834006424
0.22528910348473227
0.30874623040786947
0.7453690653140851
0.9599653998529182
0.29820197330481607
0.32232476965751006
0.570070816727534
0.754569572864031
0.037262596416212074
0.8225966470009408
0.025350772812257026
0.02649766081745643
0.024638159205228848
0.29111060616478196
0.02565489187580944
0.5837988974503316
0.7316997422398277
0.27304887622394103
0.25172155971101245
0.7338414908283224
0.7334939700696306
0.26904430066803214
0.32945789595728014
0.6691735596565965
0.6749032373407694
0.6739243573235915
0.7091461014904584
0.7867339776582623
0.9791929937069194
0.017503894083845454
0.0018837236234103287
0.021262634493151855
0.0011064178838436011
0.9816523712219397
0.9827218851030113
0.32176201228160567
0.9761292592218066
0.2496349113499242
0.3344909896911123
0.9853583923430588
0.019381913741755387
0.9791575485342342
0.9849560963321358
0.022687434040889857
0.9841919100469699
0.2709398308696294
0.9702948130352721
0.980752908600654
0.2672740561687244
0.005729002728696338
0.006011387479296755
0.02258994897044466
0.9777688624278869
0.9812217905906079
0.6942344498100321
0.9922280025633696
0.1999882686447931
0.0030535755702480465
0.7057684311373404
0.2969249714661935
0.30114313182997193
1.0187569276233654
0.02183680861696639
0.710033260705844
0.1810099545509577
0.8304510841731193
0.8205357557575937
0.8177717162070136
1.0057326785701233
0.6891968563644758
0.004116789608651909
0.9948182659568923
0.9943974842159363
0.15506174290965666
0.3228194893643458
0.18123012038148545
0.9957624858043563
0.0036440855125609243
0.8691494306582971
0.2912425223749078
0.12750987830663021
0.34094403378874844
0.011358899849625124
0.16199680205275543
0.9905622971672586
0.9901125885129368
0.12386735445671275
0.18933038211806447
-0.001532342522547336
0.43925348413788473
-0.0033351856711245327
0.4047654759300285
0.18978144429549604
-0.0037128621945693835
0.0008135123587269821
0.41067985671034046
0.42587003096877196
0.4144399288693985
0.5925665835763283
0.591177329044924
0.0031328730561662847
0.552695396611032
0.001628756191343149
0.694733503207671
0.1263610097056726
0.6021282978427469
1.0010606133638718
0.8080421495272098
0.17323428933821775
0.8052411110444768
0.18116114630163102
0.19989217718118552
0.817222821583591
0.9983435742929905
0.0016411536195370207
0.13075033090294658
0.8665625164947601
0.13202907997399857
0.33051106750917497
0.6198512856662052
0.8298617077905774
0.10313182893725571
0.40812665760272454
0.4167370299039645
0.6106406666005135
0.5997227702584726
0.594543441900147
0.020348695677094363
0.6538766781158353
0.13742655946789376
0.8671861955581313
0.8642917552686578
0.5958981025582866
0.40882918522028344
0.4220315315686055
0.00385087283350064
0.5897376320821527
0.8686971266287314
0.13293508116022895
1.006322711819149
0.19251312727180203
0.5743213035931715
0.65794678871443
0.4056185853147159
0.8631868492228225
0.5815436045014217
0.9991963699616104
0.44972367103804756
0.9885550360957853
0.9876841727730907
0.8965296278784683
0.8673493611330236
0.958592382451063
0.0057910645981852455
0.42401552517924157
0.7081373339005081
0.5767964479044885
0.6827929677123069
0.3652101160663641
0.10239036962732043
-0.0013925246355468647
0.4404577935462308
0.21144022397937975
0.8409091255144433
0.5648222824716509
0.44187005210628333
0.44634454826355807
0.8513455669417982
0.8765998755686459
0.13576628179792402
0.12154195699576589
0.8691653588287626
0.4085782532316863
0.9990503390516418
0.14237862210936067
0.9064316956769078
0.9078971440021913
0.35513594273662774
0.917846508539893
1.004049110445535
0.11255856761306937
0.141059232326013
0.6792818618339639
0.3238030910957134
0.6801807654010193
0.6894603405596295
0.0840486755215925
0.6698453165164492
0.3344365196472136
0.33364389700121827
0.0065072420868721725
0.4718347524116024
0.2623731236184922
0.7408948727162649
0.7663752302578243
0.338982560410924
0.8774407533578118
0.6682350211495869
0.6649704846351692
0.6376199052225554
0.007539219839546424
0.007448986641742399
0.12850025627813305
0.8254446098045283
-0.0030581309974218205
0.9160106171047633
0.9162740619507479
0.8498302906318759
-0.003350088963536847
-0.0026945092645776283
0.19014039914655023
0.3403563571817322
0.00035958669084160924
1.0004127842585697
0.33699228766274597
0.8888246410560574
1.0001536111648266
0.8834823830155734
0.1188265669455936
1.0057726431762901
-0.0013226271929930862
0.10115840766010867
0.995563013217278
-0.00039711374338975415
0.3175399609511586
0.0005932987929356037
0.6931433519378929
0.0036644622735474445
1.0019087266281117
1.0043903695492569
0.1109868311040985
0.4931455198249367
0.14896841153221954
0.9977593204454043
0.8867167411199719
0.9988939639617817
0.32649963406300936
0.9993755104574849
1.0027988032766457
0.13331581615035393
0.08738537848485774
9.994035031509312e-05
0.2785237798108201
0.6485217444024314
0.5856625930976543
0.41225311104428985
0.5648019935650395
1.0039905367636557
0.25554013524704994
0.5726157624603382
0.9999252315749143
0.00036878561657586464
-0.0012654488719433068
0.19364112965947958
0.4071575893319979
0.5774082554022573
-0.0017951376452826752
0.9223895639872445
1.005168926463884
0.8847990977088722
0.09053936575087752
0.9150308123515376
0.9095764165152384
0.6334886098863584
0.07648479995123891
0.8972211818100055
-0.0018972597979460772
0.27650715143698196
0.002647141745099142
0.9331362597429896
0.06653224337095902
-0.001455726313736745
0.5886114686993682
0.5399685290096768
1.0041940958772795
1.0154459107593439
1.0014313290803791
0.001314279870132849
0.43318383380068526
0.6801703118273564
0.6879570950168635
0.6822476857223893
0.31952923121618726
0.3157909984663786
0.32807220044292906
0.9441250613953674
1.0353795339869938
0.9973886748495644
0.9947927709913925
0.9635010106705095
0.6847774456199568
0.7573225892052289
-0.0018904257839153125
0.064945219832914
0.7910031791074578
0.7077813440981124
0.228138456571171
0.8726693776672713
0.0833330253045655
0.07515201224571372
0.7187423937649412
0.6226159339407764
0.43448215364675064
0.9980586885037491
1.001154974184939
0.7761208366028369
0.1003547654810295
0.9314929533079453
0.2093918020597525
0.9525157566450023
0.05237518025590654
1.0003139007067867
0.00215349362636292
0.3654585405557591
0.6137277204097537
0.35874271455568374
0.8332936608520031
0.041173164403475904
0.5913221496123142
0.37552723078868017
0.8395229081466732
-0.001133517274505933
-0.0034268022202425417
0.18944898345732467
0.17244626203878358
0.05589753609317918
0.1031589212423785
0.9457114024809729
0.8419719588400129
0.1591524153340701
0.8016894705138496
0.20320231888450427
0.9068480894162267
0.9047084295659974
0.9038145112127663
-0.004539064955110225
0.9414584735095293
0.3587307329226209
0.215391825996841
1.0004432223037096
0.16794427075390744
0.5580125900233043
0.7156255001282124
0.6114390781169448
0.641126453359964
0.043168351845268016
0.952699278973816
0.9522061128541583
0.054623586177359774
0.6962948307308141
-0.006147901395085949
1.0057295856134283
1.0036253259365515
0.03684109620546437
0.04054278156608434
0.8957244845147069
0.2519198752214908
0.9487825495917204
0.4502802569508614
0.8605154807489196
-0.0003983019416561302
0.644683300837743
0.35530299098227713
0.3649079791718442
1.0010986065048983
-0.002069558105649928
0.5573403645379087
-0.007555551206964876
0.41321325211830595
0.06738928052604871
-0.0011414156937272631
0.23315013798203377
0.6273764679418609
0.7203126917909325
0.7849440811442203
0.9501437537411154
0.04741782890512253
0.23983607439731858
0.18339122177982944
0.7698403047332337
1.0043876458904772
0.23313085852756335
0.06764019495085322
0.18372872125053527
0.05283953626607128
0.9305217698085698
0.046137596702434266
0.20937175942165914
0.7888707564726583
0.7931684610151466
0.8010565419101497
0.4076796714849129
1.0058767020359374
0.3697995692116758
0.9182642947847081
-0.0011789145283024203
0.05020042894344375
0.039068666562471946
0.5960969373372731
0.06954936143098714
0.0020973834167680528
0.059880413166820357
0.08157784265241949
0.41156591999459846
0.5632973427006369
0.02948557860529333
0.1919298569842733
-0.001822337345056721
1.000054475497299
0.918922611179553
0.4338043594870005
0.571915544499199
0.6274029452819674
0.9393257283964618
0.05099525000444984
0.04979278563794936
0.9982432630095313
0.030179333948854477
0.506081803561097
0.323457530521242
0.11870278103802308
-0.0007741126176946045
0.7917782278074346
0.9494508540260919
0.14348983591086897
0.12530088325470876
0.8545549775704028
1.0017229641785088
0.04471364987670944
0.9440929418777323
0.9439950077732739
0.44384749914618554
0.44291342621011653
1.0007594900703685
0.21417658784069374
0.3346769525372635
0.3748634821748882
0.0002611192132317378
0.968261417157273
0.9689507451369797
0.2445552175017828
0.5990829523343378
0.8344257819789885
0.8359249339743381
0.18889848351301172
0.8309350106212019
0.23056067297669533
0.8832871999553282
0.8823790472035622
0.6197061993993849
0.8947618108363338
0.6200040547615501
0.05097500308559357
0.950592258043948
0.3911700302869266
0.6235694572808937
0.3769529792128483
-0.0071059260992811435
0.3126965702063539
0.05683106900704327
-0.00042982512665425647
0.5691658786748203
0.11510626522380836
0.22028872499623306
0.08609436266027422
0.8003113512117845
0.8744973487096527
0.9760282296490186
0.5847086580197886
0.0032573958161601084
0.4039006538556707
0.07769961104049974
0.9991905874399938
1.0001704038905808
-0.000905069067102782
0.057928793368367336
0.9467097042777932
0.00041458236405842494
-0.004053042672839359
0.23336567227113295
0.7684653788770074
0.4368646091122835
1.0027570342346623
0.2216805139249516
0.8205208028231564
0.19643081350656816
0.8093187592365395
0.1905050292916234
0.9786924773479106
0.001619017191867177
0.4070733059974024
1.0008862114383226
0.9587260957626924
0.04273511717875729

SCALARS Omega double
LOOKUP_TABLE default
-7.676490308388748
-1.1818344179931388
8.58582201685828
15.920193609204132
36.510919506608246
-6.477753136730706
2.4232724853168777
-4.464703211917949
-0.4278220777804649
1.923570967120418
0.04830666911159164
-0.6367121666250608
0.485263127117615
1.1462944978859249
0.23188659368076378
0.8262956019782566
0.547618895242612
0.7962130413423937
1.5583595188836277
-0.08696415233426796
1.4181336335572925
1.246336576039926
-0.40969871214705467
0.4922922042185652
1.0677891701639306
1.0391969160016985
0.7639494953962819
0.2403776738727668
0.4608177577209799
1.4192385148139774
1.107120655985292
0.1610737353407267
1.3296526580063508
0.8622164766224656
0.4157908190802525
1.1146547494798014
0.7543266291863598
0.37862409420058124
1.3063578256327895
0.6779255373746743
1.3711673980294024
0.6887957228674976
0.43573675938598855
0.3503025214708546
0.9349406571947255
0.7188534674578776
2.1037198444977405
0.4615714036526859
-0.45491559302297613
2.144316925933835
0.8619385959186253
1.8507792485988326
9.574022733388048
-7.867894248763012
0.5807363126627155
2.8951108833296284
1.6585714937485723
-0.10620320099051782
-1.1859281029157385
-2.6737300529326404
-3.3255682305421197
-1.532211847543712
-0.25260240914575316
-0.6472478264091868
-1.051421535433461
-0.14230766542959894
-0.7013823021813156
-0.3850646632322837
-1.0661843940479347
-0.8180430794315341
-0.3111971949566724
-0.7189466494377265
-0.45846498693365545
0.09636320001199086
-1.7607590120933503
-0.6495660365277486
0.3868394864109895
-1.486153507943249
-0.5980728718577458
-0.3038404725072306
-1.100888212951745
-0.8051617703014121
-0.4290560299558144
-1.0995612268029284
-0.8837169888097595
-1.4099433996813346
-0.17705845253239988
-0.5627105626167191
-0.9662546088813186
-1.0788691121072596
-0.745005235007444
0.6829756264703154
-1.3956895903284716
-1.2257036807253947
0.20206578060735148
-0.8514685009675905
-1.119189063158204
-0.16237887894249348
-0.5574038806843743
-1.5260715063897006
-1.5307444582002563
-0.39308338370490636
-1.9059978005866876
-0.4858829678373976
-2.072074027496601
-0.4987527900176684
-0.1399361685409878
-2.0694739626316467
-1.9109468431136878
-0.8190293472272642
0.7511268508644111
-4.592711504797688
2.645810390677095
0.31204339455811525
-0.02539950879012777
-0.8569629833086091
1.6497901402465156
-5.889255166797797
-2.3403910877374243
-42.608349012599255
-0.5123677647502527
0.516042071910959
0.10197208865306627
-0.06148532265935248
-0.2781697490351574
-0.2929521995904265
0.10707038735244413
-0.3761293915181311
-2.032402765196925
3.1287693513444075
2.878180994603223
-2.975285594186361
-2.986181099693976
-2.751542367531627
-2.8529358104069384
-2.045496304694553
3.1731173637540016
3.216499587261252
3.1865951540452717
3.1802370286234645
2.317208434072007
3.21966894182106
-3.6067805902973076
3.999556725725817
-2.586079418214803
-4.188083704577204
-4.1691995024780475
5.215776149176571
4.3559471409654735
4.177656407318325
-4.846100250207111
-4.457843566064549
-4.343623789996009
-4.10055991210732
4.342183696603805
4.159385605769684
4.3892938290727095
1.968815718073474
4.663346234625805
-3.967674269779721
-1.702844510865931
-4.75660502044776
-5.080293722494332
-1.421688791765993
-0.21859040375227698
0.7672069993256097
-6.2786162809504775
-5.4407800895092535
5.051684870980034
-5.152240252712568
5.258665364121093
5.083674475721788
-1.2640910829562904
-4.8994336056732015
0.2209694032121954
0.13509238551008967
0.0618560821381739
-0.17006307434529452
0.04704017339522736
-0.14789096741025973
0.06502647662769738
-0.07052059211246214
0.14638731196927726
0.19582469932299312
0.19531687281045693
-5.595088941401579
5.374043848858055
7.33185530989118
-5.743706593665464
5.827020053859302
5.867200109279372
6.137059948492971
-5.308218127730534
5.641072394178064
5.241324943508831
-5.57782917163593
-5.444709935514675
-6.384341733741463
6.508659481658525
5.600654459864973
5.7229836425108305
0.4099611657462984
13.25165211510337
5.6006902179252185
-5.537466227554219
2.4946207931428583
2.2674421845238326
-2.7359177934178236
-5.439337016361056
-2.34103311435267
-5.88913655339901
2.709585287191584
-2.6521923861310532
-2.6056909562863733
-1.8809240426368752
2.3259023648566077
2.425639612044124
-5.555989576227389
0.08635184452541168
6.058585534192593
2.0863765848824225
-2.599241372468694
-1.9987669779573645
2.6351396677871284
5.630799235463289
-2.042379649649189
-1.2681534009505855
0.7605189442946486
2.7188721884919067
-6.110404376874725
-1.8663369393024056
-6.132445368786252
-6.035058345468463
-6.23980546268648
-2.206850695614197
-6.078000341337328
-4.518054007045173
2.487826498351014
-2.397370692555576
-2.659302483691562
2.5642954944289458
2.493027637937736
-2.4701404025185933
-1.5502724371520253
1.772610185384843
1.8622836412158057
1.8261976337521888
2.214310358119963
3.112198965820529
5.702065515917767
-6.4469380436904835
-7.395558075363684
-6.641398993608536
-8.337638561135932
6.222310267321007
6.734362325145403
-1.8095865348488644
6.640787472524757
-0.9136137974461352
-1.006944102152681
6.534047671163005
-5.2731786896659045
7.877546087282581
6.006231763009968
-6.022974842779371
5.580626559129596
-2.4288987598545324
5.570260665435735
6.915245348612678
-2.481378068560378
-8.263821439480887
-10.849624453760509
-8.80521440732911
6.468413218715406
5.738615885598613
-1.0357430318424417
7.10050802099919
-2.1678349186701147
-7.705785622525399
2.234840054196837
-2.1356651440196615
-2.0922338192962107
23.702510050672483
-6.214797914285407
2.241654448821062
-3.471978036403654
3.7204337710668076
3.521859336992209
3.527332595322796
7.450420509830941
1.6267338003332137
-8.213561864318226
8.221499950681341
6.7902144263519935
-1.450250610035667
-1.8637330732615247
-3.548760712665267
6.684592173493903
-6.594134436887754
4.192115098769181
-2.2092913767152145
-3.759993637469177
-0.44600782688914087
-6.196096667509593
3.282487681283479
7.4272900103519435
5.5734588886083225
-4.361358307026705
-3.420968143714802
-9.953464342341121
-0.5938395746914503
-7.8819377254737075
-1.4071374165322208
-3.3995975770300344
-8.534599645698057
-7.724281971099787
-0.9157268042919395
-0.747901831492259
-0.8571789890853189
0.7767592742245997
1.0282043862738854
-7.087335189354283
1.510816364970621
-9.011239294872757
2.0691873110089047
-4.270920607025917
-4.132633853610593
9.341127153468676
3.418517340950162
-3.113575034093274
3.3929022196029024
-3.505229631712328
-3.288644496695857
3.478184996262544
6.707121040670452
-6.295442925144059
-4.30097893489213
4.156959413866818
-4.186387021363602
-1.2839213278497488
1.2376351438201358
6.29877237631942
-10.011264970323351
-0.785579412067368
-0.7307261483034089
1.1437926460726473
1.06019740427265
0.975233874706855
-6.7021693063199965
-8.023515965317358
-3.908933542336886
4.258498295036974
4.158361788392377
0.9931421438593897
-0.9250749330455628
-0.7879062202666104
-8.575314356582462
1.003279335802158
4.409616630131082
-4.197391793044784
9.349717391864065
-3.3870371808602506
-0.4402378632552228
0.20500998238605223
-0.9813226712556382
4.028864907724136
0.24151581501057737
8.35396462580698
-0.46942727175069826
6.458694376202065
6.069626248557019
4.5472134554044
5.499132471979067
2.5129914063788488
-7.3832775748268915
-1.2886388019561914
2.1831721225480933
0.858607527622758
1.9280586440683545
-2.354455634268875
-4.639379074653606
-10.004263677522795
-0.6230389728587125
0.7356133957418338
3.7336424211618895
0.7412366580544232
-0.5717067477704361
-0.5338894842755039
5.48629013664019
4.904075618998775
-4.123450078616083
-4.274058035428682