# vtk DataFile Version 1.0
2D Simulation C++
ASCII
DATASET UNSTRUCTURED_GRID
FIELD FieldData 1
NODES 1 2 int
715 1308

POINTS 715 double
0.0 0.0 0.0
5.0 0.0 0.0
5.0 1.0 0.0
0.0 1.0 0.0
0.10000000149011612 1.0 0.0
0.20000000298023224 1.0 0.0
0.30000001192092896 1.0 0.0
0.4000000059604645 1.0 0.0
0.5 1.0 0.0
0.6000000238418579 1.0 0.0
0.699999988079071 1.0 0.0
0.800000011920929 1.0 0.0
0.8999999761581421 1.0 0.0
1.0 1.0 0.0
1.100000023841858 1.0 0.0
1.2000000476837158 1.0 0.0
1.2999999523162842 1.0 0.0
1.399999976158142 1.0 0.0
1.5 1.0 0.0
1.600000023841858 1.0 0.0
1.7000000476837158 1.0 0.0
1.7999999523162842 1.0 0.0
1.899999976158142 1.0 0.0
2.0 1.0 0.0
2.0999999046325684 1.0 0.0
2.200000047683716 1.0 0.0
2.299999952316284 1.0 0.0
2.4000000953674316 1.0 0.0
2.5 1.0 0.0
2.5999999046325684 1.0 0.0
2.700000047683716 1.0 0.0
2.799999952316284 1.0 0.0
2.9000000953674316 1.0 0.0
3.0 1.0 0.0
3.0999999046325684 1.0 0.0
3.200000047683716 1.0 0.0
3.299999952316284 1.0 0.0
3.4000000953674316 1.0 0.0
3.5 1.0 0.0
3.5999999046325684 1.0 0.0
3.700000047683716 1.0 0.0
3.799999952316284 1.0 0.0
3.9000000953674316 1.0 0.0
4.0 1.0 0.0
4.099999904632568 1.0 0.0
4.199999809265137 1.0 0.0
4.300000190734863 1.0 0.0
4.400000095367432 1.0 0.0
4.5 1.0 0.0
4.599999904632568 1.0 0.0
4.699999809265137 1.0 0.0
4.800000190734863 1.0 0.0
4.900000095367432 1.0 0.0
5.0 0.8999999761581421 0.0
5.0 0.800000011920929 0.0
5.0 0.699999988079071 0.0
5.0 0.6000000238418579 0.0
5.0 0.5 0.0
5.0 0.4000000059604645 0.0
5.0 0.30000001192092896 0.0
5.0 0.20000000298023224 0.0
5.0 0.10000000149011612 0.0
4.900000095367432 0.0 0.0
4.800000190734863 0.0 0.0
4.699999809265137 0.0 0.0
4.599999904632568 0.0 0.0
4.5 0.0 0.0
4.400000095367432 0.0 0.0
4.300000190734863 0.0 0.0
4.199999809265137 0.0 0.0
4.099999904632568 0.0 0.0
4.0 0.0 0.0
3.9000000953674316 0.0 0.0
3.799999952316284 0.0 0.0
3.700000047683716 0.0 0.0
3.5999999046325684 0.0 0.0
3.5 0.0 0.0
3.4000000953674316 0.0 0.0
3.299999952316284 0.0 0.0
3.200000047683716 0.0 0.0
3.0999999046325684 0.0 0.0
3.0 0.0 0.0
2.9000000953674316 0.0 0.0
2.799999952316284 0.0 0.0
2.700000047683716 0.0 0.0
2.5999999046325684 0.0 0.0
2.5 0.0 0.0
2.4000000953674316 0.0 0.0
2.299999952316284 0.0 0.0
2.200000047683716 0.0 0.0
2.0999999046325684 0.0 0.0
2.0 0.0 0.0
1.899999976158142 0.0 0.0
1.7999999523162842 0.0 0.0
1.7000000476837158 0.0 0.0
1.600000023841858 0.0 0.0
1.5 0.0 0.0
1.399999976158142 0.0 0.0
1.2999999523162842 0.0 0.0
1.2000000476837158 0.0 0.0
1.100000023841858 0.0 0.0
1.0 0.0 0.0
0.8999999761581421 0.0 0.0
0.800000011920929 0.0 0.0
0.699999988079071 0.0 0.0
0.6000000238418579 0.0 0.0
0.5 0.0 0.0
0.4000000059604645 0.0 0.0
0.30000001192092896 0.0 0.0
0.20000000298023224 0.0 0.0
0.10000000149011612 0.0 0.0
0.0 0.10000000149011612 0.0
0.0 0.20000000298023224 0.0
0.0 0.30000001192092896 0.0
0.0 0.4000000059604645 0.0
0.0 0.5 0.0
0.0 0.6000000238418579 0.0
0.0 0.699999988079071 0.0
0.0 0.800000011920929 0.0
0.0 0.8999999761581421 0.0
0.7496038675308228 0.5164291858673096 0.0
1.3451675176620483 0.5190238952636719 0.0
1.9462687969207764 0.4963642954826355 0.0
4.456614971160889 0.5060901641845703 0.0
3.864220380783081 0.4866538345813751 0.0
3.249823808670044 0.482722669839859 0.0
2.6500000953674316 0.5 0.0
0.3810288906097412 0.399004191160202 0.0
2.308779239654541 0.3797946870326996 0.0
1.0499999523162842 0.6625000238418579 0.0
1.644740104675293 0.6598879098892212 0.0
4.150000095367432 0.3375000059604645 0.0
3.555316209793091 0.3343118131160736 0.0
2.9446933269500732 0.3401789665222168 0.0
1.6342840194702148 0.3290160894393921 0.0
1.0591840744018555 0.33908534049987793 0.0
2.9654481410980225 0.6753292679786682 0.0
3.5534629821777344 0.6835107207298279 0.0
4.153462886810303 0.6835107207298279 0.0
2.2139804363250732 0.6805098056793213 0.0
0.4914395809173584 0.6739721894264221 0.0
4.691666603088379 0.6916666626930237 0.0
4.691666603088379 0.3083333373069763 0.0
2.4872219562530518 0.7236665487289429 0.0
0.6240421533584595 0.2677222192287445 0.0
2.0697431564331055 0.2657754421234131 0.0
2.5389034748077393 0.26082900166511536 0.0
0.8147311806678772 0.7450684309005737 0.0
1.2897310256958008 0.743314266204834 0.0
1.8853894472122192 0.7450258731842041 0.0
4.382374286651611 0.23655959963798523 0.0
3.910269021987915 0.25668570399284363 0.0
3.1838724613189697 0.25397706031799316 0.0
1.398239254951477 0.2614254057407379 0.0
3.201760768890381 0.7385746240615845 0.0
3.8017609119415283 0.7385746240615845 0.0
4.39177942276001 0.7466779351234436 0.0
0.25301694869995117 0.7458874583244324 0.0
2.7258167266845703 0.7600342631340027 0.0
0.84163498878479 0.2263137847185135 0.0
0.22429518401622772 0.22429518401622772 0.0
2.7605957984924316 0.22504857182502747 0.0
1.8330284357070923 0.2150011658668518 0.0
0.2192869633436203 0.5323538780212402 0.0
4.7908525466918945 0.5038931369781494 0.0
2.466000556945801 0.5376454591751099 0.0
3.7061264514923096 0.17723728716373444 0.0
3.3929696083068848 0.20266839861869812 0.0
1.4905184507369995 0.7937026619911194 0.0
1.2104878425598145 0.20361483097076416 0.0
3.9895122051239014 0.7963851690292358 0.0
3.389512300491333 0.7963851690292358 0.0
0.5652223825454712 0.5070380568504333 0.0
0.44509074091911316 0.19716571271419525 0.0
2.1318352222442627 0.5042122602462769 0.0
1.548349142074585 0.4954715371131897 0.0
3.050636053085327 0.5004673004150391 0.0
0.9511125087738037 0.498258113861084 0.0
3.651650905609131 0.5045284628868103 0.0
4.248488903045654 0.4980509281158447 0.0
1.1537858247756958 0.49593159556388855 0.0
4.050199031829834 0.49993085861206055 0.0
3.464722156524658 0.509624183177948 0.0
1.749653697013855 0.5001751780509949 0.0
2.851828098297119 0.5057260394096375 0.0
2.359710216522217 0.1888567954301834 0.0
2.0499017238616943 0.8199846148490906 0.0
0.6430503129959106 0.8181284070014954 0.0
4.560274600982666 0.1724673956632614 0.0
4.55863094329834 0.8299665451049805 0.0
2.321284055709839 0.8242537379264832 0.0
4.815218925476074 0.8345447778701782 0.0
4.837246894836426 0.16590170562267303 0.0
0.9682294130325317 0.8331464529037476 0.0
1.730908751487732 0.827606201171875 0.0
4.220076560974121 0.17516615986824036 0.0
3.02066969871521 0.18326662480831146 0.0
1.5634372234344482 0.17044226825237274 0.0
3.035303831100464 0.8294908404350281 0.0
3.627507209777832 0.8360387086868286 0.0
4.2312469482421875 0.8315803408622742 0.0
4.618130683898926 0.5361976027488708 0.0
0.40311703085899353 0.8369210362434387 0.0
1.1473191976547241 0.8458209037780762 0.0
4.052680969238281 0.15417908132076263 0.0
2.020958423614502 0.6394158005714417 0.0
0.662188708782196 0.6447370648384094 0.0
4.5115838050842285 0.3538685142993927 0.0
1.0221220254898071 0.15309639275074005 0.0
0.3837882876396179 0.5515117049217224 0.0
3.548090934753418 0.15800617635250092 0.0
1.4348299503326416 0.6465393304824829 0.0
3.765170097351074 0.3534606993198395 0.0
3.3348300457000732 0.3534606993198395 0.0
1.2546738386154175 0.36384353041648865 0.0
3.945326089859009 0.636156439781189 0.0
3.3412928581237793 0.637225866317749 0.0
2.1904795169830322 0.17066854238510132 0.0
0.16392111778259277 0.38331863284111023 0.0
2.87723445892334 0.8265392184257507 0.0
4.8459792137146 0.6499902606010437 0.0
4.845625400543213 0.34837812185287476 0.0
2.771622896194458 0.38129922747612 0.0
4.5222978591918945 0.6578375697135925 0.0
2.604464530944824 0.8240283727645874 0.0
1.8544400930404663 0.3751189708709717 0.0
0.8566747903823853 0.38255012035369873 0.0
2.2932615280151367 0.5369129776954651 0.0
2.620572805404663 0.6496497392654419 0.0
0.7172287106513977 0.1490369737148285 0.0
0.1410960853099823 0.8303417563438416 0.0
1.7142322063446045 0.142862930893898 0.0
2.6314175128936768 0.14492936432361603 0.0
1.9832650423049927 0.1408119648694992 0.0
2.445650577545166 0.370038241147995 0.0
2.885042667388916 0.1455758661031723 0.0
0.13937503099441528 0.6546638011932373 0.0
0.9110832810401917 0.6349053978919983 0.0
3.088575839996338 0.3613528311252594 0.0
4.296638011932373 0.3563385307788849 0.0
1.1930090188980103 0.6355591416358948 0.0
1.788455843925476 0.6387236714363098 0.0
4.006990909576416 0.3644408583641052 0.0
1.4459187984466553 0.39242905378341675 0.0
4.354081153869629 0.6075709462165833 0.0
3.7540812492370605 0.6075709462165833 0.0
3.1591691970825195 0.6018876433372498 0.0
2.7615907192230225 0.6205627918243408 0.0
2.36276912689209 0.6735464930534363 0.0
1.3681535720825195 0.8630191683769226 0.0
3.8318464756011963 0.1369808316230774 0.0
3.275517463684082 0.10712132602930069 0.0
0.5630941987037659 0.12814241647720337 0.0
1.3237862586975098 0.10638008266687393 0.0
3.2733232975006104 0.8705052733421326 0.0
3.8733232021331787 0.8705052733421326 0.0
2.0396511554718018 0.38928428292274475 0.0
2.2168734073638916 0.8508136868476868 0.0
0.5163488388061523 0.3409615159034729 0.0
0.6547463536262512 0.3955095112323761 0.0
1.9480526447296143 0.8710126876831055 0.0
4.689375877380371 0.13700176775455475 0.0
4.698264122009277 0.8675068616867065 0.0
0.7578787803649902 0.8698469996452332 0.0
2.479548454284668 0.13692785799503326 0.0
2.4562506675720215 0.8735422492027283 0.0
2.171211004257202 0.3573116958141327 0.0
3.5117530822753906 0.853193998336792 0.0
4.107914924621582 0.8658969402313232 0.0
2.640726327896118 0.354434996843338 0.0
4.346996307373047 0.1279495507478714 0.0
0.3128283619880676 0.11246757209300995 0.0
0.136248379945755 0.12152919173240662 0.0
4.453908443450928 0.8629162907600403 0.0
1.6064813137054443 0.8679171800613403 0.0
0.3380795121192932 0.6626779437065125 0.0
0.5102446675300598 0.875635027885437 0.0
0.7425088882446289 0.2989330589771271 0.0
3.1349449157714844 0.10448489338159561 0.0
1.3287748098373413 0.6181886196136475 0.0
3.871795415878296 0.38215625286102295 0.0
3.229135036468506 0.3810797333717346 0.0
0.28971707820892334 0.8759857416152954 0.0
0.9214505553245544 0.11992674320936203 0.0
1.9219478368759155 0.6237660050392151 0.0
1.530794620513916 0.29603153467178345 0.0
3.072223663330078 0.7044162750244141 0.0
3.6722235679626465 0.7044162750244141 0.0
[...]
POINT_DATA 715
SCALARS Psi double
LOOKUP_TABLE default
0.0
0.0
1.0
1.0
1.0
1.0
1.0
1.0
1.0
1.0
1.0
1.0
1.0
1.0
1.0
1.0
1.0
1.0
1.0
1.0
1.0
1.0
1.0
1.0
1.0
1.0
1.0
1.0
1.0
1.0
1.0
1.0
1.0
1.0
1.0
1.0
1.0
1.0
1.0
1.0
1.0
1.0
1.0
1.0
1.0
1.0
1.0
1.0
1.0
1.0
1.0
1.0
1.0
0.910962392833079
0.8411079022201391
0.7345172988559102
0.6134725186031981
0.48469242711377714
0.35387725742136894
0.2261499729122739
0.10980255594578098
0.03157498900271523
0.0
0.0
0.0
0.0
0.0
0.0
0.0
0.0
0.0
0.0
0.0
0.0
0.0
0.0
0.0
0.0
0.0
0.0
0.0
0.0
0.0
0.0
0.0
0.0
0.0
0.0
0.0
0.0
0.0
0.0
0.0
0.0
0.0
0.0
0.0
0.0
0.0
0.0
0.0
0.0
0.0
0.0
-0.0
0.0
0.0
0.0
0.0
0.0
0.0
0.027439512937316512
0.1097732042638024
0.21452095688158604
0.3201795065015894
0.42550779074065637
0.5262735020122381
0.6182467000098125
0.6917038229239477
0.6491181207787067
0.5211623175675951
0.5229956866743471
0.49605623710738905
0.5009840791621751
0.47424262315617566
0.47406700834897886
0.5049832297815788
0.33901436302566523
0.33738556407249953
0.7187858213214227
0.7160577233639124
0.2714670223125928
0.2629985735684098
0.28550930191805396
0.2643343405092689
0.27945719377405115
0.7498449406332391
0.741786692897272
0.7443227232912539
0.7519588143167563
0.7382481934439334
0.7469038830155806
0.23274142643776197
0.8095380318451201
0.18439479597022215
0.18294124245333576
0.1758269062466238
0.8298535395534931
0.8305746526953172
0.8337597676128309
0.1300185761499869
0.1634361535028374
0.16113998670090116
0.16825534162729963
0.8277057230029845
0.8205847495800179
0.8341272969643753
0.795161845266495
0.8652551309419432
0.13752673994673398
0.11502469596931805
0.1282530537696831
0.11322109401687555
0.4829869467196511
0.49224634217697016
0.5554262127584096
0.055009765380711416
0.08576199781898576
0.8938644506675555
0.08756278443292637
0.8920606477900241
0.8907519747927765
0.5022577667026642
0.08267973266979067
0.508239799713695
0.49124009157429643
0.5039665062850944
0.49657410123477913
0.4976649047920554
0.49072274747646255
0.4919396422896296
0.493114898011636
0.5059385711617521
0.49938173705372885
0.5137944894815656
0.07730471896167977
0.9323143986265573
0.9344250175294693
0.05942675201421448
0.9373955475836598
0.9421609914267134
0.9187651225249933
0.05425408573342592
0.9375298040731083
0.9358315971182002
0.05841941029904681
0.07647062934367378
0.05851806863300555
0.9522691489225349
0.9417572252269129
0.9394182115681748
0.5395666216719905
0.9714106027612096
0.9563523283768022
0.041648088831701166
0.6925883150759096
0.6983203586553787
0.29284990450230275
0.04478551478380832
0.5435092001916773
0.03804389697161111
0.6975858232230595
0.29016514248683867
0.2939407618309308
0.3094021255756521
0.6786985268176182
0.6826937006171907
0.0611059834430063
0.30460539022037586
0.9526407827311558
0.6817317392159096
0.2853151269786418
0.34193216919262104
0.708654128142337
0.9425641658704395
0.32959526974314785
0.3413840379224723
0.55382721527577
0.7109574981719088
0.04895798059824102
0.8318879526447625
0.03628244463859372
0.034161846124237505
0.034251634485852014
0.32462548324581464
0.03725029558979075
0.6011750038235257
0.6814185566031684
0.31143835183721746
0.2960761431538714
0.6830853984007527
0.6890150199939425
0.30864751422328157
0.3493019678812421
0.6414159612056802
0.639610444423217
0.6411856803050378
0.6729229912837812
0.7418941906628771
0.9689446273607227
0.02487639720553921
-0.005275774893029934
0.024944834494485247
-0.00494234823501005
0.9735741438525435
0.974979354573962
0.3504002200141558
0.9696991729441155
0.2735663513520286
0.3549426333891015
0.9803383008441322
0.03043030262898207
0.9691231636078559
0.9746245537944397
0.02825843388583858
0.9797046817939866
0.30671378128818794
0.9529151387282054
0.96791893195922
0.3040430594748788
0.00794979650766977
0.0027765312084440156
0.02085455061238108
0.9725046839394459
0.9701616472536526
0.6959266755404551
0.9933556542326161
0.22948614314030197
-0.002948723850239632
0.6592417359597278
0.3316190998944995
0.33470541830777456
1.0190868960690826
0.0270694000947839
0.669840772388056
0.21803987666754265
0.7872754794285098
0.7716622378044116
0.7748302467479737
1.0199465127981873
0.6511468992054389
0.0041923484882822794
0.9935246920841818
0.9943260795344216
0.1668222400103763
0.365713379775778
0.22342236535665924
0.9982142257525256
0.002691592087245751
0.8288613214018066
0.33267419384773145
0.1537907709688483
0.3564806042160875
0.013586707166031876
0.16544805945087337
0.991176603083232
0.9828608902172642
0.16105218068290753
0.2304692108210143
-0.009899097401054886
0.44887700185382035
-0.0123655378397861
0.4191205018253314
0.23472280750520014
-0.009325202589859978
-0.006811926946418248
0.42926379957652766
0.44036600369612755
0.42733454597337395
0.5619273729114221
0.5650465227667526
0.0011162445819091042
0.5494497866121116
0.00023710321497040084
0.6583764985699309
0.16595954788148162
0.6183715040692573
1.0056800168408246
0.7603441812036358
0.2021835314192105
0.7542844662349796
0.22407821205535422
0.23997276089959277
0.7632132554864237
1.0033064039655986
-0.004367349733082335
0.17205188773816565
0.8166075450309478
0.1728577315052503
0.3472267753678661
0.6024154051745887
0.7881911026105343
0.1649300183923757
0.4180057866864594
0.4185683735473203
0.5894541660440383
0.5755909352929823
0.5761844538398768
0.028663316283473326
0.669783181775709
0.16845684403352157
0.8205279657982507
0.8174450053813479
0.5647741782401713
0.425798410857373
0.43643791346215716
-0.001824412854795061
0.5666321437857418
0.8146317264905916
0.17776079455834243
1.0152293776808081
0.2343304118454644
0.5638338663102958
0.6414701984166109
0.43121005765777576
0.8196090346390532
0.5580387096917392
0.9992279423659541
0.4566350308072086
0.9819981809763603
0.9801074258375974
0.852529732801204
0.8215532577905638
0.9516078666634009
0.01336546068019832
0.4416588808147181
0.6715918863407464
0.558128921155556
0.6470526317376379
0.40312712492680847
0.14252910706337235
-0.005725461497074005
0.4559594532196661
0.2207766159280701
0.7957641340206302
0.5409894027241609
0.45040446006343615
0.4541287351079593
0.8126266152678028
0.8207225868272116
0.17833764403856445
0.16551323571877707
0.8240606192851362
0.423254869760248
1.002145361364149
0.1666329846028709
0.8648388921209283
0.8699356755539477
0.3821040136436864
0.8873394494892818
1.0127520966079293
0.1588365658678037
0.19416115914800067
0.6478101830995779
0.34681343027252975
0.6426174110654693
0.6551198271406642
0.11667186130900643
0.6289382457230791
0.36125241429485827
0.36143275981080514
0.0029153427834047157
0.47650507232842654
0.2901035999512456
0.6969636977150767
0.7217100706149018
0.3629523390832639
0.8351391445703714
0.6326572959901544
0.6328275804374753
0.616193498025999
0.007785912281600878
0.010872105214902943
0.1855639881010746
0.7827817792445295
-0.01183492446025832
0.8906952722136884
0.8848537344427166
0.8092858584112361
-0.007982473597844708
-0.012165629409516852
0.2093156249065852
0.36629073850073895
-0.007258950448896012
1.0067773790885886
0.3565200647193921
0.8537876293887835
1.0075968216458162
0.8309306601010927
0.1597958303213691
1.0173946902368347
-0.007853674821868238
0.13457026054184087
0.9929809233031968
-0.003753561186967692
0.33540754357854374
-0.0021576597218881804
0.6631978951030405
0.002341192947642181
1.007092593032104
1.010284302039514
0.14559117627923399
0.5088726146253365
0.19017560973870867
0.9997114431529752
0.845088112380863
1.0004677379500577
0.37010862969197733
0.9997055759489354
1.0131479066148938
0.1601469813584753
0.11859026230448028
-0.00565566075929247
0.3263444475327251
0.6185262884008945
0.5876015187376323
0.4155225167773681
0.5502784814276258
1.0117920256902126
0.26232010463575944
0.5637860247172394
1.0058451457468967
-0.00454841555750078
-0.007068848749051602
0.2235688179194287
0.4257840507290424
0.5603471938389557
-0.0033807512847005513
0.8916809460081868
1.0183699971914575
0.8742813877566452
0.1213704631375663
0.8814356879218808
0.8702608407350481
0.6071815491828342
0.11703823339904204
0.8610993679957901
-0.008375068461281625
0.3134159674199337
0.00010214515726996413
0.900882643474479
0.09631843309579981
-0.007285572591815652
0.5683605771834316
0.5567329069302513
1.0136964454171224
1.0236070391840313
1.0086931151420904
-0.001132373626915313
0.44085672728150577
0.6360757023654534
0.6411050076521525
0.6421650553700045
0.35423348011570793
0.35043662817565624
0.35964582475129264
0.9176393757538921
1.038362337442381
0.9964052469199062
0.991127148557021
0.9496757872587979
0.6798322782368649
0.7128340133856134
-0.00935048877906301
0.08247774861374699
0.7466725434166056
0.676349855225594
0.2867064252571206
0.8791809683253052
0.11639262921404049
0.10405968969867306
0.6790537882245034
0.5965779394154842
0.43810231230813984
0.9977826221050181
1.0060957487129663
0.7371369168978654
0.1264594984176188
0.9035630461010138
0.2517347120335228
0.9335591508478667
0.07155822742481667
1.004698581617247
0.001929051883604642
0.3873179677675217
0.5979417484615551
0.38370912920146755
0.8147275002324157
0.06259559397731804
0.5703396512929892
0.39046182239213917
0.7898164919003968
-0.005192025925573279
-0.011880900234428244
0.19449920608108093
0.2181605179921091
0.07692778818744594
0.13914127853865615
0.90958276658927
0.789726614089542
0.20385888510370617
0.74494259974944
0.2492315458122399
0.9083932426048449
0.8643223832039032
0.8605948630190381
-0.01588880508668979
0.9157388089028308
0.3784936250949784
0.2562478391007142
1.0064848293248434
0.20884139178477892
0.5453392451324229
0.6823502016702225
0.5855566887740797
0.6152859172164947
0.05777470805700239
0.9302040836906934
0.9283344512540048
0.08949261949319598
0.7089111396764843
-0.01429368793909488
1.0123808286058662
1.0096441395878222
0.05115993571903106
0.07734948506859343
0.8711031196552401
0.2780464211787911
0.9275208247504133
0.4685624228187352
0.817463739572057
-0.0010490443947725639
0.6072259787068084
0.3797771189281648
0.3877264891771792
1.0047263416114347
-0.005667532488372169
0.5735773914753052
-0.013027025149145537
0.41769821157573284
0.083221136589291
-0.004234980828251202
0.275256875744139
0.5997049854213514
0.7324899345007246
0.7371470350145563
0.924686939098796
0.07078180087707027
0.27888568524979135
0.2317321405622082
0.7173464190135485
1.009786581515643
0.2611740600408691
0.09437107034218015
0.23408550500837533
0.07104611578501566
0.8953802520625523
0.06834475205861804
0.24379111370547643
0.7477735604518551
0.7451703851526134
0.7560414785758096
0.4135098688304531
1.014262540629101
0.4001854754251491
0.884037735289732
-0.006306802299242706
0.07191342460228155
0.053010623042182875
0.5774495451343702
0.09809103150004508
-0.0005925153052958118
0.06052899668008724
0.08648651539794157
0.4261771901562971
0.5548561552977583
0.04040305460087164
0.23250363957599895
-0.0038798525396141524
1.00411833233668
0.8755750295127793
0.43571200203629
0.5543700398711062
0.6009446108122275
0.9079436983726401
0.07271378102328238
0.06921922140931581
0.9996065969015557
0.04249144172463917
0.5237481090352464
0.35239480956268593
0.14594851274178655
-0.006271836119607869
0.7465152802222966
0.9274799062768493
0.18405988453189193
0.16367137856678868
0.8034998303443226
1.0067594379832012
0.055988184076267856
0.9162540041339515
0.91648008328008
0.45092413124087954
0.4510688602330392
1.0060997930194844
0.24363048652554045
0.34511515104044305
0.4013591257893494
-0.004103278330313631
0.9495904871514854
0.9498442236679765
0.25899263736571354
0.5768725612196379
0.7876967353951506
0.787707693209134
0.21803255374948238
0.7875170040922176
0.27032844683938223
0.8379995615259528
0.8417663616891259
0.5874308180857867
0.8590290986405252
0.5914938895342753
0.07231000842652845
0.9218290263925707
0.41110149176942284
0.5879164868742323
0.3999320159360916
-0.014660222227961551
0.3337890535382581
0.06875492324619369
-0.004894904284840942
0.558591703943528
0.15046176218129614
0.24748709648305756
0.08718364381806294
0.7497494611928579
0.8325595853709662
0.9619796980833961
0.5676824585416744
0.0034982673854602126
0.4307596871350592
0.09898138900334183
1.0010672638648554
1.0028131679084826
-0.006357761865076374
0.06387208726038276
0.9275089188683225
-0.0012204895496189425
-0.01140910094197563
0.2764855249005061
0.7154693575385767
0.4556416607638298
1.0048847063140631
0.27818670553495256
0.7733194080133143
0.23924580256908598
0.7564770667592298
0.2343797244914733
0.9782208226588669
0.002582478272835708
0.4231394529563744
1.0058537970785084
0.9405024305725007
0.06267267137104221

SCALARS Omega double
LOOKUP_TABLE default
-7.617667199634723
-1.041225089801634
8.334032489813238
15.435323174760487
35.36193536397379
-6.738046371494935
2.1457716437225534
-4.280008898138629
-0.26797136880787326
3.6590673409197114
-0.0263251902574675
-1.7708436627039534
0.9450871388298546
2.658981020451822
0.2266189666893782
0.7574952882267136
0.6022915628079059
0.8218615716466107
2.8147352926449405
-0.24914071461048085
2.6584876048172923
1.7731417110796475
-1.9940627378208113
0.6302297511733788
1.7538310501475323
1.1943128138942714
0.7253645114639847
-0.6932365915432825
-0.18460079090412881
2.1622512266050307
1.3798198382601976
0.2870226912061589
1.6359036725649039
0.8045365075566819
0.33068806988839927
1.5329572150395114
1.0251967786363396
0.5869259609746322
2.289797387558318
1.417409064745937
1.9537569970889983
0.9804762418743935
0.4578256539525536
0.7674292168754195
1.4681461698144864
1.341465441165101
3.2629689892894667
-0.007472623723691843
-1.7470274519442637
3.4434804411765394
1.542288327278374
3.654409091530034
10.667759398470468
-6.513923376957141
-0.07533648300787948
1.277345570795347
0.8936846964576376
-0.05003346121578871
-0.21167854698789476
-0.8577121574837763
-1.6556438022146194
-2.645259679815417
-0.6242829098065106
-2.396414575650891
-1.4986292719028114
0.1745935067428141
-1.624493629774995
-0.3524011807358271
-1.276950204492948
-1.3409700820480508
-0.014487867335788364
-0.8509174295391858
-0.5140498951713706
0.9388810410743023
-2.657376270179925
-0.17912998500047633
1.090411569468698
-2.6124890956764677
-0.8683019268877559
0.832468941325519
-2.141139965791769
-1.3726243863552563
-0.2508463079069861
-1.2027781690705601
-0.5710772074534592
-1.5166779777635706
1.0469333592611691
0.0068047012053051095
-1.7812159322434427
-1.7354543831233162
-0.795847457095472
1.7593527882416713
-1.9772427085507327
-1.7226589792730285
0.8243083842953312
-1.111915891350792
-1.612882071352355
0.1722780389415423
-0.46661819476901917
-2.1342729178941653
-1.579563319159678
0.340323214274456
-2.580009035712454
-0.31391096532515694
-3.0283959137869614
-0.15234458766483286
0.43896548917929584
-2.5654957304874295
-1.8332518184631879
-0.6132381580985612
1.3303858445887553
-4.445916330593743
2.7379959134993723
0.37378190045723725
-0.15124152739119434
-0.8449376675715597
1.3106341849094663
-5.994711189822401
-2.2379359784205732
-42.32711773302349
-0.002095331793454138
0.0018313499457204546
-0.0005360481127012881
0.002347745081682846
-0.0017522298099786383
0.0012490514289565397
0.00019244504893635257
-0.14372256704265823
-0.024116359744358832
0.0019102753146188038
-0.053448930216412865
-0.029186628492279654
0.09035912013681692
0.017618451510449034
0.03059833297457565
-0.042019124105423446
-0.06596016453691657
-0.03809939702047142
-0.05092227300921992
-0.12347904636545441
0.3212226604493981
0.020279219085738074
0.025601393012530144
0.25406827649012664
-0.22266075063400767
-0.6757575140326575
-0.4938213170536381
0.7189473664770906
1.0392777042552948
0.538503651902709
-1.307901007866037
-0.5374350569290046
-0.4430005141098331
-0.3026645407701372
0.8572681681586506
0.5169594272317967
1.020031968180846
1.061663875612994
0.9577327005136458
-1.2911394446125397
-1.4771703435354178
-1.4159868028574643
-1.7830381514327778
-0.5692899824432092
-0.024556608281305545
0.00625074982917997
-6.6090599130806345
-2.622758367766068
2.262057799721411
-2.471695848875637
2.3374432255473288
2.2123435843230226
-0.03370872334624215
-3.247635141708944
0.001938006763599501
0.0012605759491392855
0.0002491871005312942
-0.0005683805468520574
-0.0030192463224308413
0.0027547088797951875
0.0014179007884229297
-0.0007400895783666087
-0.0015880084676618336
0.004074986949430228
0.004130734781638019
-3.5138742511124033
4.196275449570914
4.503077584201461
-4.5799281425116245
5.123189744797736
5.3293157226553305
4.145745186305375
-4.903537189255413
4.331843718523066
4.626196354844173
-5.122302392621143
-3.0072502190613988
-5.81599334684351
7.273450567119585
4.65303794703335
4.990998462100608
0.0021226116549738156
11.199400483446363
6.874675082733165
-6.6436137929610295
-0.018282447445787924
0.13520834670387472
0.03596126334603003
-5.45899876891772
-0.3164107743496487
-6.952582501182416
0.027116260214742408
0.023650451319234937
0.03779242221088848
0.03362345118519958
-0.03626379311525813
-0.024901658789204036
-4.685353407591356
-0.2613664153515463
5.636805755459195
-0.11883345928955338
0.1636480341950214
-0.008061171996149207
-0.041285399322976556
4.602683839269259
0.005287965889168394
0.0013725724900788153
0.010176321664315225
-0.02153098574282022
-6.221976957098407
-1.313323182274012
-7.623953379072244
-7.645538920838355
-8.058493081788033
-0.0005043756165276224
-6.469073553710596
-3.284479936503052
-0.012613623569528191
0.0014034128901671329
0.008635611568216562
-0.017358211814565868
0.030273876428333468
0.028525436364485075
0.015437532480943974
-0.007718015577790384
0.0015619805526387455
-0.028899209100358602
-0.0014050310178598479
0.07641211752889945
8.022259088263365
-8.850364921871368
-13.466510434431894
-8.131282256891346
-13.574975451178467
9.142940853912261
9.772218971767366
0.010144730072183845
9.01485913995102
-0.050683087244808585
-0.016853844521149783
9.566554905271706
-7.113654432804735
9.54670686481486
8.447208056668808
-8.178520985471089
8.485865548063279
0.0011688863579084473
5.766796950380532
8.675248408212248
0.008893777817153982
-12.007572651277131
-12.743046840136376
-9.795144786062274
8.808253729188866
7.707148301473912
-0.4747281245343771
10.80110282437647
-0.12946646920555727
-14.621453665066774
0.022572148568530466
0.009414758269479467
0.0003031550664955584
23.1356023201218
-7.74086853176183
0.0120383870233395
-0.1130941066646688
0.18810252299572228
-0.002710096156918363
0.07706739559694871
16.278969303256424
0.016027831515455893
-11.893144564980089
12.560036113221289
10.614517960153199
-0.8918497392554418
0.00018590866540335612
-0.030518544063270873
12.34460362545238
-11.32205441844303
0.29256980979095437
-0.006103739031170518
-1.1298119143723615
-0.3599632959926548
-9.699560581702375
3.0962467830055593
13.024082716423495
9.134259536907388
-0.7856372342175797
-0.09974252973960564
-15.71298927875348
-0.007668254103705493
-15.289179050638364
-1.2615365556354112
-0.03331637177870642
-13.945475461723131
-14.348494974904396
-0.0022924448905089164
-0.004522991974797256
-0.004440060948680071
0.00810301599533654
0.001288004771714563
-13.149393711406413
0.4592097266171787
-14.093568031306132
0.009008160314770627
-0.42346408905130106
-2.0935060647702772
15.14516857719426
0.010961368555082888
-0.017868780632782563
0.030288834481303834
0.23325572633014174
-0.09841971131944637
-0.10881421224121517
14.72163555652503
-12.875468871640233
-0.5388284523692418
0.5080131131429998
-0.052985681583384535
0.0019267312196633777
0.006424123696176413
0.8025414484322091
-2.290529286822009
0.0049475115334191464
-0.005281469164021487
-1.2751824822120391e-05
0.005388345413521005
0.006954249206351529
-7.367687907620881
-6.7937994063238
-0.340425969525306
0.4176875740100958
0.2543568997829061
0.014374102915499832
-0.0016598892104355562
-0.0014691792594745709
-15.310454928140272
0.0009365483456608559
0.1350333777406321
-0.379269458954064
15.55910050918767
-0.019345724855336064
-0.003530425669646699
0.0094607977960346
-0.008657637544499618
0.4734059167150462
0.001440779122914615
13.752072271081486
0.0004975764752379434
9.776992149508342
8.89010611193122
1.065804061203866
0.6756755228751737
5.771173220922401
-12.02026471035654
-0.09440890640572334
0.0023489005824062245
0.003226761250640538
-0.0011028297313860562