# vtk DataFile Version 1.0
2D Simulation C++
ASCII
DATASET UNSTRUCTURED_GRID
FIELD FieldData 1
NODES 1 2 int
715 1308

POINTS 715 double
0.0 0.0 0.0
5.0 0.0 0.0
5.0 1.0 0.0
0.0 1.0 0.0
0.10000000149011612 1.0 0.0
0.20000000298023224 1.0 0.0
0.30000001192092896 1.0 0.0
0.4000000059604645 1.0 0.0
0.5 1.0 0.0
0.6000000238418579 1.0 0.0
0.699999988079071 1.0 0.0
0.800000011920929 1.0 0.0
0.8999999761581421 1.0 0.0
1.0 1.0 0.0
1.100000023841858 1.0 0.0
1.2000000476837158 1.0 0.0
1.2999999523162842 1.0 0.0
1.399999976158142 1.0 0.0
1.5 1.0 0.0
1.600000023841858 1.0 0.0
1.7000000476837158 1.0 0.0
1.7999999523162842 1.0 0.0
1.899999976158142 1.0 0.0
2.0 1.0 0.0
2.0999999046325684 1.0 0.0
2.200000047683716 1.0 0.0
2.299999952316284 1.0 0.0
2.4000000953674316 1.0 0.0
2.5 1.0 0.0
2.5999999046325684 1.0 0.0
2.700000047683716 1.0 0.0
2.799999952316284 1.0 0.0
2.9000000953674316 1.0 0.0
3.0 1.0 0.0
3.0999999046325684 1.0 0.0
3.200000047683716 1.0 0.0
3.299999952316284 1.0 0.0
3.4000000953674316 1.0 0.0
3.5 1.0 0.0
3.5999999046325684 1.0 0.0
3.700000047683716 1.0 0.0
3.799999952316284 1.0 0.0
3.9000000953674316 1.0 0.0
4.0 1.0 0.0
4.099999904632568 1.0 0.0
4.199999809265137 1.0 0.0
4.300000190734863 1.0 0.0
4.400000095367432 1.0 0.0
4.5 1.0 0.0
4.599999904632568 1.0 0.0
4.699999809265137 1.0 0.0
4.800000190734863 1.0 0.0
4.900000095367432 1.0 0.0
5.0 0.8999999761581421 0.0
5.0 0.800000011920929 0.0
5.0 0.699999988079071 0.0
5.0 0.6000000238418579 0.0
5.0 0.5 0.0
5.0 0.4000000059604645 0.0
5.0 0.30000001192092896 0.0
5.0 0.20000000298023224 0.0
5.0 0.10000000149011612 0.0
4.900000095367432 0.0 0.0
4.800000190734863 0.0 0.0
4.699999809265137 0.0 0.0
4.599999904632568 0.0 0.0
4.5 0.0 0.0
4.400000095367432 0.0 0.0
4.300000190734863 0.0 0.0
4.199999809265137 0.0 0.0
4.099999904632568 0.0 0.0
4.0 0.0 0.0
3.9000000953674316 0.0 0.0
3.799999952316284 0.0 0.0
3.700000047683716 0.0 0.0
3.5999999046325684 0.0 0.0
3.5 0.0 0.0
3.4000000953674316 0.0 0.0
3.299999952316284 0.0 0.0
3.200000047683716 0.0 0.0
3.0999999046325684 0.0 0.0
3.0 0.0 0.0
2.9000000953674316 0.0 0.0
2.799999952316284 0.0 0.0
2.700000047683716 0.0 0.0
2.5999999046325684 0.0 0.0
2.5 0.0 0.0
2.4000000953674316 0.0 0.0
2.299999952316284 0.0 0.0
2.200000047683716 0.0 0.0
2.0999999046325684 0.0 0.0
2.0 0.0 0.0
1.899999976158142 0.0 0.0
1.7999999523162842 0.0 0.0
1.7000000476837158 0.0 0.0
1.600000023841858 0.0 0.0
1.5 0.0 0.0
1.399999976158142 0.0 0.0
1.2999999523162842 0.0 0.0
1.2000000476837158 0.0 0.0
1.100000023841858 0.0 0.0
1.0 0.0 0.0
0.8999999761581421 0.0 0.0
0.800000011920929 0.0 0.0
0.699999988079071 0.0 0.0
0.6000000238418579 0.0 0.0
0.5 0.0 0.0
0.4000000059604645 0.0 0.0
0.30000001192092896 0.0 0.0
0.20000000298023224 0.0 0.0
0.10000000149011612 0.0 0.0
0.0 0.10000000149011612 0.0
0.0 0.20000000298023224 0.0
0.0 0.30000001192092896 0.0
0.0 0.4000000059604645 0.0
0.0 0.5 0.0
0.0 0.6000000238418579 0.0
0.0 0.699999988079071 0.0
0.0 0.800000011920929 0.0
0.0 0.8999999761581421 0.0
0.7496038675308228 0.5164291858673096 0.0
1.3451675176620483 0.5190238952636719 0.0
1.9462687969207764 0.4963642954826355 0.0
4.456614971160889 0.5060901641845703 0.0
3.864220380783081 0.4866538345813751 0.0
3.249823808670044 0.482722669839859 0.0
2.6500000953674316 0.5 0.0
0.3810288906097412 0.399004191160202 0.0
2.308779239654541 0.3797946870326996 0.0
1.0499999523162842 0.6625000238418579 0.0
1.644740104675293 0.6598879098892212 0.0
4.150000095367432 0.3375000059604645 0.0
3.555316209793091 0.3343118131160736 0.0
2.9446933269500732 0.3401789665222168 0.0
1.6342840194702148 0.3290160894393921 0.0
1.0591840744018555 0.33908534049987793 0.0
2.9654481410980225 0.6753292679786682 0.0
3.5534629821777344 0.6835107207298279 0.0
4.153462886810303 0.6835107207298279 0.0
2.2139804363250732 0.6805098056793213 0.0
0.4914395809173584 0.6739721894264221 0.0
4.691666603088379 0.6916666626930237 0.0
4.691666603088379 0.3083333373069763 0.0
2.4872219562530518 0.7236665487289429 0.0
0.6240421533584595 0.2677222192287445 0.0
2.0697431564331055 0.2657754421234131 0.0
2.5389034748077393 0.26082900166511536 0.0
0.8147311806678772 0.7450684309005737 0.0
1.2897310256958008 0.743314266204834 0.0
1.8853894472122192 0.7450258731842041 0.0
4.382374286651611 0.23655959963798523 0.0
3.910269021987915 0.25668570399284363 0.0
3.1838724613189697 0.25397706031799316 0.0
1.398239254951477 0.2614254057407379 0.0
3.201760768890381 0.7385746240615845 0.0
3.8017609119415283 0.7385746240615845 0.0
4.39177942276001 0.7466779351234436 0.0
0.25301694869995117 0.7458874583244324 0.0
2.7258167266845703 0.7600342631340027 0.0
0.84163498878479 0.2263137847185135 0.0
0.22429518401622772 0.22429518401622772 0.0
2.7605957984924316 0.22504857182502747 0.0
1.8330284357070923 0.2150011658668518 0.0
0.2192869633436203 0.5323538780212402 0.0
4.7908525466918945 0.5038931369781494 0.0
2.466000556945801 0.5376454591751099 0.0
3.7061264514923096 0.17723728716373444 0.0
3.3929696083068848 0.20266839861869812 0.0
1.4905184507369995 0.7937026619911194 0.0
1.2104878425598145 0.20361483097076416 0.0
3.9895122051239014 0.7963851690292358 0.0
3.389512300491333 0.7963851690292358 0.0
0.5652223825454712 0.5070380568504333 0.0
0.44509074091911316 0.19716571271419525 0.0
2.1318352222442627 0.5042122602462769 0.0
1.548349142074585 0.4954715371131897 0.0
3.050636053085327 0.5004673004150391 0.0
0.9511125087738037 0.498258113861084 0.0
3.651650905609131 0.5045284628868103 0.0
4.248488903045654 0.4980509281158447 0.0
1.1537858247756958 0.49593159556388855 0.0
4.050199031829834 0.49993085861206055 0.0
3.464722156524658 0.509624183177948 0.0
1.749653697013855 0.5001751780509949 0.0
2.851828098297119 0.5057260394096375 0.0
2.359710216522217 0.1888567954301834 0.0
2.0499017238616943 0.8199846148490906 0.0
0.6430503129959106 0.8181284070014954 0.0
4.560274600982666 0.1724673956632614 0.0
4.55863094329834 0.8299665451049805 0.0
2.321284055709839 0.8242537379264832 0.0
4.815218925476074 0.8345447778701782 0.0
4.837246894836426 0.16590170562267303 0.0
0.9682294130325317 0.8331464529037476 0.0
1.730908751487732 0.827606201171875 0.0
4.220076560974121 0.17516615986824036 0.0
3.02066969871521 0.18326662480831146 0.0
1.5634372234344482 0.17044226825237274 0.0
3.035303831100464 0.8294908404350281 0.0
3.627507209777832 0.8360387086868286 0.0
4.2312469482421875 0.8315803408622742 0.0
4.618130683898926 0.5361976027488708 0.0
0.40311703085899353 0.8369210362434387 0.0
1.1473191976547241 0.8458209037780762 0.0
4.052680969238281 0.15417908132076263 0.0
2.020958423614502 0.6394158005714417 0.0
0.662188708782196 0.6447370648384094 0.0
4.5115838050842285 0.3538685142993927 0.0
1.0221220254898071 0.15309639275074005 0.0
0.3837882876396179 0.5515117049217224 0.0
3.548090934753418 0.15800617635250092 0.0
1.4348299503326416 0.6465393304824829 0.0
3.765170097351074 0.3534606993198395 0.0
3.3348300457000732 0.3534606993198395 0.0
1.2546738386154175 0.36384353041648865 0.0
3.945326089859009 0.636156439781189 0.0
3.3412928581237793 0.637225866317749 0.0
2.1904795169830322 0.17066854238510132 0.0
0.16392111778259277 0.38331863284111023 0.0
2.87723445892334 0.8265392184257507 0.0
4.8459792137146 0.6499902606010437 0.0
4.845625400543213 0.34837812185287476 0.0
2.771622896194458 0.38129922747612 0.0
4.5222978591918945 0.6578375697135925 0.0
2.604464530944824 0.8240283727645874 0.0
1.8544400930404663 0.3751189708709717 0.0
0.8566747903823853 0.38255012035369873 0.0
2.2932615280151367 0.5369129776954651 0.0
2.620572805404663 0.6496497392654419 0.0
0.7172287106513977 0.1490369737148285 0.0
0.1410960853099823 0.8303417563438416 0.0
1.7142322063446045 0.142862930893898 0.0
2.6314175128936768 0.14492936432361603 0.0
1.9832650423049927 0.1408119648694992 0.0
2.445650577545166 0.370038241147995 0.0
2.885042667388916 0.1455758661031723 0.0
0.13937503099441528 0.6546638011932373 0.0
0.9110832810401917 0.6349053978919983 0.0
3.088575839996338 0.3613528311252594 0.0
4.296638011932373 0.3563385307788849 0.0
1.1930090188980103 0.6355591416358948 0.0
1.788455843925476 0.6387236714363098 0.0
4.006990909576416 0.3644408583641052 0.0
1.4459187984466553 0.39242905378341675 0.0
4.354081153869629 0.6075709462165833 0.0
3.7540812492370605 0.6075709462165833 0.0
3.1591691970825195 0.6018876433372498 0.0
2.7615907192230225 0.6205627918243408 0.0
2.36276912689209 0.6735464930534363 0.0
1.3681535720825195 0.8630191683769226 0.0
3.8318464756011963 0.1369808316230774 0.0
3.275517463684082 0.10712132602930069 0.0
0.5630941987037659 0.12814241647720337 0.0
1.3237862586975098 0.10638008266687393 0.0
3.2733232975006104 0.8705052733421326 0.0
3.8733232021331787 0.8705052733421326 0.0
2.0396511554718018 0.38928428292274475 0.0
2.2168734073638916 0.8508136868476868 0.0
0.5163488388061523 0.3409615159034729 0.0
0.6547463536262512 0.3955095112323761 0.0
1.9480526447296143 0.8710126876831055 0.0
4.689375877380371 0.13700176775455475 0.0
4.698264122009277 0.8675068616867065 0.0
0.7578787803649902 0.8698469996452332 0.0
2.479548454284668 0.13692785799503326 0.0
2.4562506675720215 0.8735422492027283 0.0
2.171211004257202 0.3573116958141327 0.0
3.5117530822753906 0.853193998336792 0.0
4.107914924621582 0.8658969402313232 0.0
2.640726327896118 0.354434996843338 0.0
4.346996307373047 0.1279495507478714 0.0
0.3128283619880676 0.11246757209300995 0.0
0.136248379945755 0.12152919173240662 0.0
4.453908443450928 0.8629162907600403 0.0
1.6064813137054443 0.8679171800613403 0.0
0.3380795121192932 0.6626779437065125 0.0
0.5102446675300598 0.875635027885437 0.0
0.7425088882446289 0.2989330589771271 0.0
3.1349449157714844 0.10448489338159561 0.0
1.3287748098373413 0.6181886196136475 0.0
3.871795415878296 0.38215625286102295 0.0
3.229135036468506 0.3810797333717346 0.0
0.28971707820892334 0.8759857416152954 0.0
0.9214505553245544 0.11992674320936203 0.0
1.9219478368759155 0.6237660050392151 0.0
1.530794620513916 0.29603153467178345 0.0
3.072223663330078 0.7044162750244141 0.0
3.6722235679626465 0.7044162750244141 0.0
[...]
POINT_DATA 715
SCALARS Psi double
LOOKUP_TABLE default
0.0
0.0
1.0
1.0
1.0
1.0
1.0
1.0
1.0
1.0
1.0
1.0
1.0
1.0
1.0
1.0
1.0
1.0
1.0
1.0
1.0
1.0
1.0
1.0
1.0
1.0
1.0
1.0
1.0
1.0
1.0
1.0
1.0
1.0
1.0
1.0
1.0
1.0
1.0
1.0
1.0
1.0
1.0
1.0
1.0
1.0
1.0
1.0
1.0
1.0
1.0
1.0
1.0
0.9195114502802127
0.8664655656139163
0.7656841853274439
0.6288766173304787
0.4703831253966801
0.31080182001446166
0.17217432172004385
0.070189367608559
0.018431342517929484
0.0
0.0
0.0
0.0
0.0
0.0
0.0
0.0
0.0
0.0
0.0
0.0
0.0
0.0
0.0
0.0
0.0
0.0
0.0
0.0
0.0
0.0
0.0
0.0
0.0
0.0
0.0
0.0
0.0
0.0
0.0
0.0
0.0
0.0
0.0
0.0
0.0
0.0
0.0
0.0
0.0
0.0
-0.0
0.0
0.0
0.0
0.0
0.0
0.0
0.02734894671109442
0.10769472908824765
0.20923027505304143
0.3108736073603152
0.4124641781661296
0.5108187930060583
0.6026377199675927
0.6784506702639928
0.6416407605281235
0.5300714544019521
0.5436206381691765
0.5006240561960771
0.494786940043012
0.4705304480839197
0.47038111746049727
0.5081286147836229
0.32040528207977986
0.3058647413837609
0.7747682130346469
0.7665023628089725
0.22681433467141457
0.2224249704357677
0.24281152442710832
0.2269387739152151
0.2548713474193952
0.7930278072322237
0.792826742259218
0.7908746550935454
0.7982643002998788
0.7598881095724802
0.7876602586677919
0.17502000780076088
0.8544451212708691
0.15683898634856355
0.1429482071602885
0.13732103970314183
0.8816154225642736
0.8776456186772075
0.8765642806220155
0.09064359254717659
0.12161436363789596
0.12156639515360083
0.13534695247297165
0.8701189653920388
0.865511759213707
0.8706170433789799
0.7934739599141215
0.9004060238580988
0.11060191768258615
0.1112712263629364
0.09403530819242178
0.08169345879476521
0.46456825172114824
0.4794534386215581
0.5719242121838131
0.039721403298109484
0.06206576466504832
0.9299559674901673
0.06977503438162194
0.9274959672790656
0.9276181834220419
0.4954577917156273
0.0711751888328024
0.5146221942213418
0.5012721654482865
0.505586649426712
0.5098947458430374
0.5021685463899603
0.48600498416405336
0.5069686860620317
0.4919294696507839
0.5124152952453055
0.5075582660064868
0.5176222398371134
0.056204468863766795
0.9538119080363135
0.9590470248418835
0.03634810773692288
0.9542496715597448
0.9594977649667606
0.94304714986676
0.027560575125730128
0.9639140768022664
0.9568838765697787
0.0399322125869477
0.0511963379736732
0.04066416188860036
0.9655622402954641
0.962074272305028
0.959096641038709
0.5410493608016586
0.9786723081822875
0.9709322315701746
0.02948303956282497
0.735311370082822
0.7344624138669087
0.24295242771359563
0.03679651228415405
0.5292901607437173
0.028780376133771744
0.7489964751968335
0.2507527181665987
0.25459480534108997
0.28700349061130553
0.7197805782842285
0.7253637648079476
0.04341556186900205
0.294796713817216
0.9645772378228751
0.7161798502734434
0.22529071860038755
0.3088143742245907
0.7452789996361934
0.9599661190119733
0.29821061814067057
0.32232520309582385
0.5700917537296273
0.7545820093135295
0.03726266380876986
0.8225966748871814
0.025351368941278832
0.02650538558161224
0.024639789167383644
0.2911530027061875
0.025663074042882376
0.5837989381306377
0.7317001599678612
0.2731244476730091
0.25168650817601523
0.7338422613069563
0.7334986550398964
0.2690294757092099
0.32945984114540605
0.6690776789519346
0.674883134413654
0.6739601840528676
0.7091676482447015
0.7867423692906126
0.9791932003974253
0.017506376832661787
0.0018818467107100337
0.02126265598618358
0.001106439807419245
0.9816512072110322
0.9827176109999047
0.3217780243974874
0.9761308922283389
0.24963504018876564
0.3344912285433828
0.9853588927352511
0.019379919185272723
0.9791465713483665
0.9849561375596158
0.022691354515417872
0.984192739813112
0.2709624860798329
0.9702922950371528
0.9807444934527556
0.26733144136192727
0.005727717842530953
0.006011388612261612
0.022589953105219687
0.9777580161955887
0.9812220880187419
0.6942345337116616
0.9922280164855094
0.19998852889616286
0.003051966709513114
0.7057695675966041
0.2969275381828449
0.3012183845869992
1.0187569325899972
0.021836880048280827
0.710040151283265
0.1810120339792816
0.8304606826635207
0.8205185269198435
0.8176974248324977
1.0057339179271072
0.6891971784997136
0.004116888533229389
0.9948182745789911
0.994396517106291
0.15506178609742904
0.3227875169548736
0.18123949905473147
0.9957625326278843
0.003644722600646447
0.8691533050104194
0.2911986098486082
0.12751025247175968
0.34094408745944665
0.011359793784318615
0.1619968196761568
0.9905624248028005
0.990112621172278
0.12388532629507482
0.18933544395414942
-0.001532373273051509
0.43929851113920954
-0.003338677755469636
0.40476551299644603
0.18984312716147247
-0.0037130718476513706
0.0008108162139809286
0.4106245374677993
0.42594229364492947
0.4144864875676742
0.5925672386723926
0.5911810246738057
0.0031315773576529094
0.5526297973783016
0.0016284735596381952
0.6947508135122742
0.12640054383016183
0.6021283540967656
1.001062557570633
0.8079807764271472
0.17323496188320733
0.8052444229386478
0.18121131699499635
0.19992507140399807
0.8172246553199763
0.998343570548086
0.0016410725372578464
0.13076436950844136
0.8665634500628294
0.1320744962619328
0.3305116262062237
0.619767377406549
0.8297988521572847
0.10314777766874486
0.4081307365330441
0.4167377434582299
0.6106855387718001
0.5997440205309137
0.5944616479278907
0.0203487556629992
0.6538767111180128
0.1374274477841188
0.8671882361254775
0.8642540150081792
0.5958991299129958
0.40880442850381765
0.4221074056763236
0.0038486418443771262
0.589744960046342
0.8686976292497989
0.13293008189844288
1.0063227164115958
0.1925444613103796
0.5743215518245933
0.6579469735345002
0.4055562912193038
0.8631913986895638
0.5815440296680923
0.9991963832017882
0.4497553309990503
0.9885523538931869
0.9876830898669193
0.896531343815709
0.8673495265944997
0.9585876504904682
0.0057902123436202515
0.4240156488426427
0.7081613717518334
0.5768087376568748
0.6828037488496347
0.3651866781053129
0.10243044003762203
-0.0013925228998224808
0.4403837501065715
0.21144026061212803
0.8409146272299276
0.5648241744287382
0.4418797429550949
0.4464102435482504
0.851345704174482
0.8766001699423701
0.135816152108239
0.1215294662880799
0.8691683899109324
0.40860391253987166
0.9990504565283753
0.14237872466059956
0.9064239539941816
0.90785563419596
0.35520860773826474
0.9178474055938249
1.0040491045723878
0.11254928695170965
0.1410506699716034
0.6791886464661676
0.32380574695712044
0.6801750662193932
0.6894931205381976
0.08405050924460752
0.6698477096166972
0.33447189694752766
0.33370651849873706
0.006507242562220977
0.47189112839012476
0.2623745069867508
0.7408564796487112
0.7663930950138803
0.3389884278146997
0.8774434929530454
0.66825516680564
0.6648978919373223
0.6375232584300605
0.007539887272679463
0.007449042474762806
0.12850506432449055
0.825377823877091
-0.0030581643873671175
0.9160106927526431
0.9162774692649642
0.8497654701711999
-0.003350566196627939
-0.002697993686897876
0.1901404732942526
0.3403685669842408
0.00035711290607724804
1.000413037038887
0.3369926147387499
0.8887711707587529
1.00015427669535
0.8834827416412162
0.11881691302818037
1.0057736316078312
-0.0013262252175351014
0.10118067110181911
0.9955600114684181
-0.00039747951827140974
0.31754084844505576
0.000593295952263
0.6930530280123457
0.0036632618602729446
1.0019099549525146
1.0043901137477436
0.1110166758614451
0.493145556354995
0.14898493989854994
0.997759198505107
0.8867201221129528
0.9988939585826263
0.32647508463047037
0.9993756722201729
1.0027988009074538
0.13331628515450136
0.08740629221971644
9.87346436064016e-05
0.27849359738585294
0.6485398189540871
0.5856627363929704
0.4122542799325973
0.5647539955656737
1.0039911757078477
0.2555401601695514
0.5725249470285748
0.9999252204784931
0.0003687991776438278
-0.001268315101104074
0.19364154087276092
0.4071576708453143
0.5774414677031637
-0.0017952193648972598
0.9223502578517054
1.00516988782966
0.8847991529400354
0.09054051853237095
0.9150312482512282
0.909560628792352
0.6335187979318921
0.07648292198725261
0.897175263257968
-0.001897282102592302
0.27655891363125756
0.0026464714785201775
0.9331366511556455
0.06653456564314328
-0.0014570468987036148
0.5886584186835259
0.5399685991803709
1.0041944328449883
1.0154459064268708
1.0014317824143342
0.00131417832530741
0.43319205282554446
0.6801708325631936
0.6879577926238923
0.6822519072782811
0.31948392300391787
0.31575986244347265
0.32815071439490257
0.944126304222466
1.0353795290691157
0.9973888143962519
0.9947917726028991
0.9635015699962908
0.6847775577142912
0.7573331682486508
-0.00189330012464118
0.06494529537440126
0.791012950887715
0.7077046326254186
0.2281429992728046
0.8726693877046673
0.08336440604126004
0.07515426085482195
0.7187541724227705
0.6225761580475514
0.43448256346356623
0.9980587138900413
1.0011559685125682
0.7760346447632276
0.10035494762802222
0.9314959862507339
0.2094504845093198
0.9525158696281557
0.05238963885164913
1.0003144143832912
0.002153501119381701
0.36547821552349424
0.6136505102854968
0.35880464991914507
0.8332937480035079
0.04116939637335867
0.5913389054540299
0.37552727456959295
0.8395257520914723
-0.0011337301897148433
-0.0034296219319167997
0.18944900677422583
0.17250684742204778
0.05591340273612409
0.10316661073794342
0.9457115479631537
0.8419726109677899
0.1591514648464085
0.8016898926267775
0.20317840750104066
0.9068481186297965
0.9046691102823379
0.9038096503846687
-0.004543025986045603
0.9414602758451576
0.3587309108011349
0.21540510982570188
1.000442999399378
0.16795098966897162
0.5580693850343259
0.7155442467222871
0.6114767149067476
0.6411267348748722
0.043168840123174325
0.9526976305566773
0.9521936306553236
0.054624459761734655
0.6962948748476453
-0.006147953986045419
1.0057323450168363
1.0036253605559402
0.03685319692300319
0.04055085777437129
0.8956960819951583
0.2519200513922703
0.948757165844503
0.4502214629777992
0.8605204216891763
-0.0003982992711489616
0.6446847634659194
0.3553102264894742
0.36498056562881315
1.001098601401073
-0.0020696923419662593
0.5573403988433001
-0.007555555141377523
0.41321488379081145
0.06738959180056787
-0.0011414176551949706
0.23322120266344973
0.6273859572452816
0.7203127178527873
0.7849490315960288
0.9501441341675595
0.047422162823622306
0.2398538463415825
0.18336833305363462
0.7698406363511725
1.0043908828272514
0.23313108228831955
0.06764696820351014
0.18370724202863412
0.052846508120617114
0.930522798811003
0.0461332714881555
0.2093734846664675
0.7887875930450371
0.7931424991745465
0.8010699425088093
0.4076801677019015
1.005876695172651
0.3697407905360127
0.9182671386820859
-0.001179510255313431
0.050218614241462775
0.03908164421241925
0.5961368284088288
0.06955330128413433
0.00209754358155953
0.059880422344196584
0.08157786335325011
0.4116072177045403
0.5632056144260646
0.029495090311953593
0.19196795724107235
-0.0018223374576355853
1.0000542999418611
0.9189227596048519
0.4338065584779249
0.5719134124170722
0.6274461526272882
0.9393263111207125
0.05100326939191834
0.04980914105642084
0.9982432661204691
0.030180215792552065
0.5060818470546425
0.32349467642563606
0.11870294118817866
-0.000775563780163352
0.7917867872588525
0.9494509172202859
0.14353487244613866
0.12532134065571585
0.8545562269179687
1.0017231415788097
0.04471400298360332
0.9440908789532966
0.9439769154581171
0.4438620897052101
0.4429136893048762
1.000760814251899
0.21417692791211318
0.33467698297731713
0.374803957797142
0.0002611109707232738
0.9682490197755539
0.9689484105653087
0.24455527356136467
0.5990603161553639
0.8343774313808572
0.8359288064556447
0.18889931284452638
0.8309416527121789
0.23058669366949372
0.8832751158467478
0.8823258233460226
0.6197066796622948
0.8947643778047616
0.6200096760403823
0.05097302197203496
0.9505924812851736
0.39124597749689677
0.6235703045256246
0.37692109360782433
-0.007106310928046713
0.3126966843401265
0.05683111475726863
-0.0004313533239091535
0.5690753698986872
0.11510807994088545
0.22028924150748808
0.0860943749581275
0.8003116006743193
0.8745001028016206
0.9760285813180872
0.5847613063854374
0.003257403202514872
0.40384546384389086
0.07769983775181862
0.9991904579356012
1.00017174303618
-0.0009072115638931188
0.057928815852586364
0.9466828630135591
0.00041452912462167503
-0.004056147669890183
0.2333645231152028
0.7684662508778082
0.43686467308160803
1.0027594405136642
0.22167350079265835
0.820525865897496
0.19649296970219896
0.8093197270273775
0.19051483544289574
0.9786929020157488
0.0016179492074717406
0.4071263593153487
1.0008862083097896
0.9587276387720292
0.04275084427876924

SCALARS Omega double
LOOKUP_TABLE default
-7.676490629367285
-1.1813204008059814
8.585495772861083
15.920192913199092
36.510915973931574
-6.477754104270934
2.4232710008161233
-4.464703740281671
-0.4278234633734652
1.9235667642756806
0.04830561592275106
-0.6367117819951018
0.48526101692887136
1.1462839152250734
0.2318820100889107
0.8262828590116899
0.5476159021747247
0.7961988291557519
1.5583404621785537
-0.08696438195585499
1.4180871840085851
1.2463041952913885
-0.4096313625953786
0.49222449746549646
1.0676791671675547
1.0390681214454938
0.7638220463981032
0.24021114414591554
0.46075611509783543
1.4191321509859307
1.1070952855369818
0.16109048904927195
1.3296730488889277
0.8622892722101172
0.41589435981375794
1.1148314420587133
0.7544570924902265
0.37867843274252627
1.3064859104974595
0.6778143923037996
1.3712448483203976
0.689060381844955
0.43552931990143384
0.3503455038540467
0.9352039495434812
0.7191106062662841
2.104879103020811
0.4617595876872983
-0.4553968635077602
2.1455080109303117
0.8625362351404239
1.8514708595978109
9.574638961935591
-7.865831916499726
0.5804497543910582
2.8933301982445
1.6570784897684967
-0.1065664420361842
-1.1847140419000688
-2.6722721766873736
-3.324260367439839
-1.5328590851588266
-0.25205754445082673
-0.6468568695708319
-1.0512400183566044
-0.14188133823848928
-0.701305909018797
-0.38485137693607624
-1.0660029283373336
-0.8180119423732761
-0.3111966534843392
-0.7191243508641026
-0.4584402294366578
0.09628807384990129
-1.7612043445184573
-0.6495555599496654
0.3869893515078102
-1.4865599558543416
-0.5980685157983505
-0.30354215660069167
-1.101123239414805
-0.8051784524170436
-0.428670211428301
-1.099627358934699
-0.8837556238244244
-1.4100855492034867
-0.17670521266336897
-0.56246891758953
-0.9662581738777747
-1.079004257264365
-0.7448820115214878
0.6830932385222644
-1.3957235656179017
-1.2257285593219882
0.20213193484445696
-0.8514946845215104
-1.1192039970261614
-0.1623876520336966
-0.5574117728417388
-1.526085427317263
-1.5307534631214157
-0.3930824700560344
-1.9060079072525995
-0.4858838321417191
-2.0720774292150215
-0.4987543288172281
-0.13993526075938492
-2.0694757014329954
-1.910947202893213
-0.8190297656779553
0.7511265091771291
-4.592711285382979
2.645810350050866
0.3120433196612766
-0.025399787250324785
-0.8569630610391199
1.6497900652915358
-5.889256006736573
-2.340392335313012
-42.60834755558215
-0.5123655214347669
0.5160348867271802
0.102066817222426
-0.06393552559520092
-0.27797916683764323
-0.2903142441591949
0.10795342659617616
-0.3761302171772603
-2.0311536948192894
3.128772731758615
2.878189165637694
-2.9744543906169403
-2.983638503787482
-2.7478833149470474
-2.8528728538370345
-2.0454823539652645
3.1715396949286143
3.214560382159786
3.182962453736822
3.1798644343869142
2.317211796432508
3.2166985838198583
-3.604481261573202
3.9986958422122227
-2.5860765204136924
-4.187733736455
-4.167935471784952
5.215779056000083
4.355955656544724
4.177717965514615
-4.844777970920273
-4.45686010424041
-4.342631806409198
-4.100531287425229
4.340535920508556
4.1576052314167296
4.387829838610168
1.968818693632894
4.662161319873376
-3.9676683602264573
-1.702844552955099
-4.756062420161207
-5.08036431904644
-1.4216894614449074
-0.21977267044349527
0.7672737591271694
-6.279189679655553
-5.44199242568591
5.05169561081238
-5.152231978356191
5.258799874124374
5.082491373452883
-1.2640907506954966
-4.89943393672555
0.22114012504662428
0.13508195241178067
0.06376396350089529
-0.17005885782682367
0.04820265524836655
-0.1499900383515645
0.0650283510831853
-0.07182355765204841
0.14826196667099625
0.19584130225480262
0.1965295371026396
-5.595942760806942
5.37406049592392
7.331853483998545
-5.743323224531727
5.829039257021871
5.867220147809805
6.138142032929138
-5.309272656907861
5.641074414076338
5.241309706700262
-5.577122122863401
-5.446468587289258
-6.384407130959568
6.507865294565778
5.601104472811197
5.724998257374282
0.4070930956644594
13.251650041027322
5.600686413114068
-5.537120721568657
2.4945306025653484
2.2674453985256804
-2.734626268733683
-5.439342361658568
-2.341033684336368
-5.891003834496274
2.709581124805525
-2.6502116730833816
-2.6023045562973817
-1.8809095665487199
2.3227522660832522
2.424693954558649
-5.556624239210421
0.08635114617934135
6.058035203249985
2.0829560553794026
-2.596440501992154
-1.9956076621933736
2.6310862940706254
5.63052934618792
-2.042178111965839
-1.2681468778837959
0.7605521903284496
2.717626302457953
-6.110410604784247
-1.8663321061686
-6.132655363453276
-6.037159526873344
-6.240420354714067
-2.2049415844297844
-6.081158245445866
-4.518055131360488
2.487829177729706
-2.3938341557318656
-2.6586609594303696
2.564296933497585
2.4930328232685954
-2.4691421208819446
-1.5502619855994628
1.7684777968526604
1.8606539428299695
1.8258663372462498
2.2132166869313434
3.1115793579880413
5.702037913386973
-6.447598985444955
-7.399009758318475
-6.64140444733
-8.337713713901465
6.222159544054235
6.736743723491091
-1.8091011792149738
6.640798431466388
-0.913613172609625
-1.0069426646802966
6.533782847648084
-5.2738745390301744
7.8809356198537595
6.00622396681341
-6.025137423917441
5.5806679511721615
-2.428012542632464
5.570491360495415
6.918459554541891
-2.4784392049851176
-8.263409352870205
-10.849627780113474
-8.805215253263604
6.47197635583715
5.738529882435004
-1.0357410755265584
7.10050198067562
-2.167829703796316
-7.70986474059327
2.2348359424952458
-2.134193747651561
-2.0887521381649505
23.70250439002868
-6.2148123053064035
2.2416419398728946
-3.471939498266888
3.7187758417703334
3.519743520127507
3.524179796486152
7.451031649914514
1.6267368499185195
-8.213649483851462
8.223602602016454
6.790115910688256
-1.450250601089153
-1.8627084628862514
-3.548473277284301
6.684548245366736
-6.594453354965083
4.1905281211687875
-2.2089366700403086
-3.7599834158103347
-0.4460087049097213
-6.196726603702604
3.2824874243671687
7.427020193150302
5.57344402131119
-4.360742502606965
-3.42084747413283
-9.953526750077975
-0.5925280627746499
-7.885842418003238
-1.4071377785572323
-3.3964816601712404
-8.536332900741659
-7.727821730515658
-0.9165511036839438
-0.7451746858398732
-0.8546613032396096
0.7767610876669623
1.028191644473972
-7.087389239341189
1.5074689617397814
-9.011842726918514
2.068500570683284
-4.269441984975496
-4.132634381003542
9.346870872049198
3.4154208868876954
-3.1135564331703542
3.391211860480514
-3.502969234314083
-3.2866443172546385
3.4782000154339743
6.707078214492842
-6.295299852120697
-4.299962742760142
4.156969558923959
-4.185075782168621
-1.2839123621807809
1.2341986681975028
6.293692363044709
-10.005631552603662
-0.7855616547879305
-0.7307191271841806
1.1439620554052838
1.0605722829369166
0.9721137806027944
-6.702179247055561
-8.023517423392363
-3.9089109662122974
4.256717361932919
4.15626700189597
0.9931381805942864
-0.92481086445544
-0.7848147158093272
-8.577738061928608
1.0032875179310539
4.409627787980384
-4.1962520739792435
9.34996292667927
-3.3855180556308984
-0.4402359467373328
0.20501256947029606
-0.9822317571928811
4.028852337162324
0.24151880016072066
8.353857390511052
-0.46868994921472007
6.462006143470638
6.069863902214041
4.547252275732751
5.4991346744737895
2.5191296665816876
-7.385892968786566
-1.2886396323257177
2.1819855421104912
0.8586208940414342
1.9278926538995398
-2.352222131827753
-4.638687250187716
-10.004269351908285
-0.6247125947528338
0.7356128482542608
3.733507863648211
0.7412234305228389
-0.5705207974998894
-0.5310022052253066
5.486292975088214
4.904081142790122
-4.121978764804007
-4.272679438335215
4.05864260500965
-0.8823501799496845