# vtk DataFile Version 1.0
2D Simulation C++
ASCII
DATASET UNSTRUCTURED_GRID
FIELD FieldData 1
NODES 1 2 int
715 1308

POINTS 715 double
0.0 0.0 0.0
5.0 0.0 0.0
5.0 1.0 0.0
0.0 1.0 0.0
0.10000000149011612 1.0 0.0
0.20000000298023224 1.0 0.0
0.30000001192092896 1.0 0.0
0.4000000059604645 1.0 0.0
0.5 1.0 0.0
0.6000000238418579 1.0 0.0
0.699999988079071 1.0 0.0
0.800000011920929 1.0 0.0
0.8999999761581421 1.0 0.0
1.0 1.0 0.0
1.100000023841858 1.0 0.0
1.2000000476837158 1.0 0.0
1.2999999523162842 1.0 0.0
1.399999976158142 1.0 0.0
1.5 1.0 0.0
1.600000023841858 1.0 0.0
1.7000000476837158 1.0 0.0
1.7999999523162842 1.0 0.0
1.899999976158142 1.0 0.0
2.0 1.0 0.0
2.0999999046325684 1.0 0.0
2.200000047683716 1.0 0.0
2.299999952316284 1.0 0.0
2.4000000953674316 1.0 0.0
2.5 1.0 0.0
2.5999999046325684 1.0 0.0
2.700000047683716 1.0 0.0
2.799999952316284 1.0 0.0
2.9000000953674316 1.0 0.0
3.0 1.0 0.0
3.0999999046325684 1.0 0.0
3.200000047683716 1.0 0.0
3.299999952316284 1.0 0.0
3.4000000953674316 1.0 0.0
3.5 1.0 0.0
3.5999999046325684 1.0 0.0
3.700000047683716 1.0 0.0
3.799999952316284 1.0 0.0
3.9000000953674316 1.0 0.0
4.0 1.0 0.0
4.099999904632568 1.0 0.0
4.199999809265137 1.0 0.0
4.300000190734863 1.0 0.0
4.400000095367432 1.0 0.0
4.5 1.0 0.0
4.599999904632568 1.0 0.0
4.699999809265137 1.0 0.0
4.800000190734863 1.0 0.0
4.900000095367432 1.0 0.0
5.0 0.8999999761581421 0.0
5.0 0.800000011920929 0.0
5.0 0.699999988079071 0.0
5.0 0.6000000238418579 0.0
5.0 0.5 0.0
5.0 0.4000000059604645 0.0
5.0 0.30000001192092896 0.0
5.0 0.20000000298023224 0.0
5.0 0.10000000149011612 0.0
4.900000095367432 0.0 0.0
4.800000190734863 0.0 0.0
4.699999809265137 0.0 0.0
4.599999904632568 0.0 0.0
4.5 0.0 0.0
4.400000095367432 0.0 0.0
4.300000190734863 0.0 0.0
4.199999809265137 0.0 0.0
4.099999904632568 0.0 0.0
4.0 0.0 0.0
3.9000000953674316 0.0 0.0
3.799999952316284 0.0 0.0
3.700000047683716 0.0 0.0
3.5999999046325684 0.0 0.0
3.5 0.0 0.0
3.4000000953674316 0.0 0.0
3.299999952316284 0.0 0.0
3.200000047683716 0.0 0.0
3.0999999046325684 0.0 0.0
3.0 0.0 0.0
2.9000000953674316 0.0 0.0
2.799999952316284 0.0 0.0
2.700000047683716 0.0 0.0
2.5999999046325684 0.0 0.0
2.5 0.0 0.0
2.4000000953674316 0.0 0.0
2.299999952316284 0.0 0.0
2.200000047683716 0.0 0.0
2.0999999046325684 0.0 0.0
2.0 0.0 0.0
1.899999976158142 0.0 0.0
1.7999999523162842 0.0 0.0
1.7000000476837158 0.0 0.0
1.600000023841858 0.0 0.0
1.5 0.0 0.0
1.399999976158142 0.0 0.0
1.2999999523162842 0.0 0.0
1.2000000476837158 0.0 0.0
1.100000023841858 0.0 0.0
1.0 0.0 0.0
0.8999999761581421 0.0 0.0
0.800000011920929 0.0 0.0
0.699999988079071 0.0 0.0
0.6000000238418579 0.0 0.0
0.5 0.0 0.0
0.4000000059604645 0.0 0.0
0.30000001192092896 0.0 0.0
0.20000000298023224 0.0 0.0
0.10000000149011612 0.0 0.0
0.0 0.10000000149011612 0.0
0.0 0.20000000298023224 0.0
0.0 0.30000001192092896 0.0
0.0 0.4000000059604645 0.0
0.0 0.5 0.0
0.0 0.6000000238418579 0.0
0.0 0.699999988079071 0.0
0.0 0.800000011920929 0.0
0.0 0.8999999761581421 0.0
0.7496038675308228 0.5164291858673096 0.0
1.3451675176620483 0.5190238952636719 0.0
1.9462687969207764 0.4963642954826355 0.0
4.456614971160889 0.5060901641845703 0.0
3.864220380783081 0.4866538345813751 0.0
3.249823808670044 0.482722669839859 0.0
2.6500000953674316 0.5 0.0
0.3810288906097412 0.399004191160202 0.0
2.308779239654541 0.3797946870326996 0.0
1.0499999523162842 0.6625000238418579 0.0
1.644740104675293 0.6598879098892212 0.0
4.150000095367432 0.3375000059604645 0.0
3.555316209793091 0.3343118131160736 0.0
2.9446933269500732 0.3401789665222168 0.0
1.6342840194702148 0.3290160894393921 0.0
1.0591840744018555 0.33908534049987793 0.0
2.9654481410980225 0.6753292679786682 0.0
3.5534629821777344 0.6835107207298279 0.0
4.153462886810303 0.6835107207298279 0.0
2.2139804363250732 0.6805098056793213 0.0
0.4914395809173584 0.6739721894264221 0.0
4.691666603088379 0.6916666626930237 0.0
4.691666603088379 0.3083333373069763 0.0
2.4872219562530518 0.7236665487289429 0.0
0.6240421533584595 0.2677222192287445 0.0
2.0697431564331055 0.2657754421234131 0.0
2.5389034748077393 0.26082900166511536 0.0
0.8147311806678772 0.7450684309005737 0.0
1.2897310256958008 0.743314266204834 0.0
1.8853894472122192 0.7450258731842041 0.0
4.382374286651611 0.23655959963798523 0.0
3.910269021987915 0.25668570399284363 0.0
3.1838724613189697 0.25397706031799316 0.0
1.398239254951477 0.2614254057407379 0.0
3.201760768890381 0.7385746240615845 0.0
3.8017609119415283 0.7385746240615845 0.0
4.39177942276001 0.7466779351234436 0.0
0.25301694869995117 0.7458874583244324 0.0
2.7258167266845703 0.7600342631340027 0.0
0.84163498878479 0.2263137847185135 0.0
0.22429518401622772 0.22429518401622772 0.0
2.7605957984924316 0.22504857182502747 0.0
1.8330284357070923 0.2150011658668518 0.0
0.2192869633436203 0.5323538780212402 0.0
4.7908525466918945 0.5038931369781494 0.0
2.466000556945801 0.5376454591751099 0.0
3.7061264514923096 0.17723728716373444 0.0
3.3929696083068848 0.20266839861869812 0.0
1.4905184507369995 0.7937026619911194 0.0
1.2104878425598145 0.20361483097076416 0.0
3.9895122051239014 0.7963851690292358 0.0
3.389512300491333 0.7963851690292358 0.0
0.5652223825454712 0.5070380568504333 0.0
0.44509074091911316 0.19716571271419525 0.0
2.1318352222442627 0.5042122602462769 0.0
1.548349142074585 0.4954715371131897 0.0
3.050636053085327 0.5004673004150391 0.0
0.9511125087738037 0.498258113861084 0.0
3.651650905609131 0.5045284628868103 0.0
4.248488903045654 0.4980509281158447 0.0
1.1537858247756958 0.49593159556388855 0.0
4.050199031829834 0.49993085861206055 0.0
3.464722156524658 0.509624183177948 0.0
1.749653697013855 0.5001751780509949 0.0
2.851828098297119 0.5057260394096375 0.0
2.359710216522217 0.1888567954301834 0.0
2.0499017238616943 0.8199846148490906 0.0
0.6430503129959106 0.8181284070014954 0.0
4.560274600982666 0.1724673956632614 0.0
4.55863094329834 0.8299665451049805 0.0
2.321284055709839 0.8242537379264832 0.0
4.815218925476074 0.8345447778701782 0.0
4.837246894836426 0.16590170562267303 0.0
0.9682294130325317 0.8331464529037476 0.0
1.730908751487732 0.827606201171875 0.0
4.220076560974121 0.17516615986824036 0.0
3.02066969871521 0.18326662480831146 0.0
1.5634372234344482 0.17044226825237274 0.0
3.035303831100464 0.8294908404350281 0.0
3.627507209777832 0.8360387086868286 0.0
4.2312469482421875 0.8315803408622742 0.0
4.618130683898926 0.5361976027488708 0.0
0.40311703085899353 0.8369210362434387 0.0
1.1473191976547241 0.8458209037780762 0.0
4.052680969238281 0.15417908132076263 0.0
2.020958423614502 0.6394158005714417 0.0
0.662188708782196 0.6447370648384094 0.0
4.5115838050842285 0.3538685142993927 0.0
1.0221220254898071 0.15309639275074005 0.0
0.3837882876396179 0.5515117049217224 0.0
3.548090934753418 0.15800617635250092 0.0
1.4348299503326416 0.6465393304824829 0.0
3.765170097351074 0.3534606993198395 0.0
3.3348300457000732 0.3534606993198395 0.0
1.2546738386154175 0.36384353041648865 0.0
3.945326089859009 0.636156439781189 0.0
3.3412928581237793 0.637225866317749 0.0
2.1904795169830322 0.17066854238510132 0.0
0.16392111778259277 0.38331863284111023 0.0
2.87723445892334 0.8265392184257507 0.0
4.8459792137146 0.6499902606010437 0.0
4.845625400543213 0.34837812185287476 0.0
2.771622896194458 0.38129922747612 0.0
4.5222978591918945 0.6578375697135925 0.0
2.604464530944824 0.8240283727645874 0.0
1.8544400930404663 0.3751189708709717 0.0
0.8566747903823853 0.38255012035369873 0.0
2.2932615280151367 0.5369129776954651 0.0
2.620572805404663 0.6496497392654419 0.0
0.7172287106513977 0.1490369737148285 0.0
0.1410960853099823 0.8303417563438416 0.0
1.7142322063446045 0.142862930893898 0.0
2.6314175128936768 0.14492936432361603 0.0
1.9832650423049927 0.1408119648694992 0.0
2.445650577545166 0.370038241147995 0.0
2.885042667388916 0.1455758661031723 0.0
0.13937503099441528 0.6546638011932373 0.0
0.9110832810401917 0.6349053978919983 0.0
3.088575839996338 0.3613528311252594 0.0
4.296638011932373 0.3563385307788849 0.0
1.1930090188980103 0.6355591416358948 0.0
1.788455843925476 0.6387236714363098 0.0
4.006990909576416 0.3644408583641052 0.0
1.4459187984466553 0.39242905378341675 0.0
4.354081153869629 0.6075709462165833 0.0
3.7540812492370605 0.6075709462165833 0.0
3.1591691970825195 0.6018876433372498 0.0
2.7615907192230225 0.6205627918243408 0.0
2.36276912689209 0.6735464930534363 0.0
1.3681535720825195 0.8630191683769226 0.0
3.8318464756011963 0.1369808316230774 0.0
3.275517463684082 0.10712132602930069 0.0
0.5630941987037659 0.12814241647720337 0.0
1.3237862586975098 0.10638008266687393 0.0
3.2733232975006104 0.8705052733421326 0.0
3.8733232021331787 0.8705052733421326 0.0
2.0396511554718018 0.38928428292274475 0.0
2.2168734073638916 0.8508136868476868 0.0
0.5163488388061523 0.3409615159034729 0.0
0.6547463536262512 0.3955095112323761 0.0
1.9480526447296143 0.8710126876831055 0.0
4.689375877380371 0.13700176775455475 0.0
4.698264122009277 0.8675068616867065 0.0
0.7578787803649902 0.8698469996452332 0.0
2.479548454284668 0.13692785799503326 0.0
2.4562506675720215 0.8735422492027283 0.0
2.171211004257202 0.3573116958141327 0.0
3.5117530822753906 0.853193998336792 0.0
4.107914924621582 0.8658969402313232 0.0
2.640726327896118 0.354434996843338 0.0
4.346996307373047 0.1279495507478714 0.0
0.3128283619880676 0.11246757209300995 0.0
0.136248379945755 0.12152919173240662 0.0
4.453908443450928 0.8629162907600403 0.0
1.6064813137054443 0.8679171800613403 0.0
0.3380795121192932 0.6626779437065125 0.0
0.5102446675300598 0.875635027885437 0.0
0.7425088882446289 0.2989330589771271 0.0
3.1349449157714844 0.10448489338159561 0.0
1.3287748098373413 0.6181886196136475 0.0
3.871795415878296 0.38215625286102295 0.0
3.229135036468506 0.3810797333717346 0.0
0.28971707820892334 0.8759857416152954 0.0
0.9214505553245544 0.11992674320936203 0.0
1.9219478368759155 0.6237660050392151 0.0
1.530794620513916 0.29603153467178345 0.0
3.072223663330078 0.7044162750244141 0.0
3.6722235679626465 0.7044162750244141 0.0
[...]
POINT_DATA 715
SCALARS Psi double
LOOKUP_TABLE default
0.0
0.0
1.0
1.0
1.0
1.0
1.0
1.0
1.0
1.0
1.0
1.0
1.0
1.0
1.0
1.0
1.0
1.0
1.0
1.0
1.0
1.0
1.0
1.0
1.0
1.0
1.0
1.0
1.0
1.0
1.0
1.0
1.0
1.0
1.0
1.0
1.0
1.0
1.0
1.0
1.0
1.0
1.0
1.0
1.0
1.0
1.0
1.0
1.0
1.0
1.0
1.0
1.0
0.9119599712928659
0.8436436823137918
0.7371507859634676
0.6148401588917667
0.4840335957810434
0.35102030865718814
0.2218032035543014
0.10587973984323953
0.0302999469371808
0.0
0.0
0.0
0.0
0.0
0.0
0.0
0.0
0.0
0.0
0.0
0.0
0.0
0.0
0.0
0.0
0.0
0.0
0.0
0.0
0.0
0.0
0.0
0.0
0.0
0.0
0.0
0.0
0.0
0.0
0.0
0.0
0.0
0.0
0.0
0.0
0.0
0.0
0.0
0.0
0.0
0.0
-0.0
0.0
0.0
0.0
0.0
0.0
0.0
0.02775131063825243
0.10951537813663187
0.2133386214109827
0.31778297287284113
0.4219339163384344
0.5218526296110837
0.613746682434052
0.6879743693247853
0.6469171581134817
0.5226258320742464
0.5236482447874978
0.4969596994237477
0.500994705376784
0.4740476074236925
0.4736786881567256
0.5056054206800303
0.3353105626701387
0.33525044650960534
0.7225451199911554
0.720621746809395
0.2678413196549508
0.259807433590149
0.2815584133629217
0.26095302967574235
0.2762343606158392
0.7544670310934767
0.7461617384076258
0.7483628743575695
0.7571543397136972
0.7443618234577364
0.7512526697583843
0.22781083454535594
0.8150938294563758
0.1796466867579176
0.17906559274814515
0.17175331192161727
0.836170865497045
0.8349410580060809
0.8395565621791288
0.12548233695177405
0.15907109404456646
0.15612658928823575
0.16354610065805236
0.8320825367360042
0.825233002435719
0.8386204433131296
0.7967100188438474
0.8707479238374648
0.13359283565606506
0.11320091593742074
0.12373831080114059
0.10954681664885996
0.47862398187915584
0.4918648393271345
0.557092066912875
0.05331543693448345
0.08206944093815409
0.8986899219219705
0.08351664723189703
0.8967855029798926
0.895437725150008
0.5024671104045014
0.07861229751879581
0.5092955312272514
0.49168786469889586
0.5040526716486389
0.49718469585240876
0.49805396877185937
0.49057558351093333
0.4920275575188074
0.493097436390737
0.506435159635422
0.5002277769738479
0.514320620921966
0.07388647240307676
0.9362558117338687
0.9400237325533525
0.05588186592569616
0.9406360448056089
0.9456909502018811
0.9221482412208629
0.05072639675295791
0.9408020236326101
0.9395227956990969
0.055636116626827735
0.07202327567832639
0.05590022220095779
0.9543411372829484
0.9451211904259228
0.9422581517655092
0.5402072932097559
0.9760420362880495
0.957836669981911
0.040383839824366455
0.6968952465420383
0.704038391723039
0.28927967033991464
0.043073609988155154
0.5419116482165984
0.03695609197840048
0.7014199455705448
0.2871575984100214
0.2907046929120023
0.30630141596961025
0.6817732490078762
0.6859505760426832
0.05849888509109525
0.3020325118954981
0.9557310367249172
0.6844758809376867
0.28111817580579146
0.3394391964155191
0.7123557314487323
0.9458347674125046
0.3274900825549555
0.33942783666654586
0.5555888393761773
0.7151844000577436
0.046671760484930165
0.8299450950208898
0.03521645383065698
0.033537923585060754
0.033312830622703335
0.3222274543312442
0.03462223830287243
0.5964068329640609
0.6854174741229991
0.30793276505763895
0.29274026215633214
0.68608236324587
0.6933605625005915
0.3056787529378754
0.3470796322730859
0.6437630659410711
0.6421212638371798
0.6435918382230478
0.6764771396009014
0.7468869563376135
0.9704895244825305
0.02405738761766124
-0.004664285828089643
0.02367310525624009
-0.004437700315597422
0.9744331790007993
0.9762490517881823
0.34876103000473857
0.971467055690307
0.2693541556871229
0.35277561821188047
0.9816606827458619
0.028723596930076586
0.9712801001944985
0.9764886047433436
0.027638065993499928
0.9804055556223226
0.3042422464793209
0.9556584057290284
0.9699234813019626
0.3012565234238206
0.007392929473623323
0.002670943847311962
0.021550086834690126
0.9734212999002235
0.9721267700316977
0.6974249123745108
0.9947669139743694
0.22565477008247944
-0.0024375258035027516
0.6620871958381938
0.3291247488818491
0.33187241660063654
1.0204934706867343
0.02635522739693922
0.6738544554009808
0.2139578915032927
0.7917898138429115
0.7761827841025356
0.7790814909275782
1.018353830874262
0.6553086764046748
0.0038237089437982994
0.9942346506290923
0.9940094649886236
0.16286316390495229
0.3631375063464992
0.21980919739748211
0.9973510135211852
0.0034564581530621002
0.8345407473812007
0.3299283455042614
0.14979395738774096
0.35285095352996626
0.013691668096367503
0.16481239324021157
0.9913936677039473
0.9838818934828115
0.15684450975704317
0.22672879629857345
-0.008714364049686008
0.4486039694633494
-0.010423572242993258
0.41527964608157897
0.2302014251348785
-0.0079423658729991
-0.005743021021075537
0.42812285719294374
0.4393648975131045
0.42664677560716463
0.5633503043822182
0.5669537313656616
0.0015455769142643223
0.5500103093342358
0.0007994630992163846
0.6618046494959856
0.1617149481700336
0.6148033059449964
1.0049161971386993
0.7646852208485239
0.19767074380544555
0.758824182697528
0.22005312614661268
0.23661196615082655
0.7683580923338025
1.002251285103427
-0.0030075855421757016
0.1677675584523652
0.8216051162891053
0.16805173703498566
0.3452960734198209
0.6041138500094952
0.7917562542114206
0.1592429574611944
0.4172612044264112
0.4176194349793757
0.5912659147771322
0.577261661487559
0.5774815401021273
0.027128719578493516
0.6652585602498503
0.16350700846791155
0.8252976658828876
0.8222963923154671
0.5660099348590569
0.42474601095094994
0.4352649668345478
-0.0010969155912948913
0.5688147783623622
0.8189851049735108
0.17335740425878102
1.0143828582879524
0.23038798279863326
0.5661287544879292
0.6454486340996348
0.42997166841458334
0.8252451633011417
0.5600640330728832
0.9995121872639572
0.456603687892977
0.9834312523432674
0.9813697459472158
0.8580735223849553
0.8289797628300556
0.9527366382619872
0.012461179621061731
0.4394734658578657
0.6751358266296773
0.5601043978537972
0.6505341207828017
0.40106447618427377
0.13696669277099294
-0.005247372947474409
0.4552349662884295
0.21791579894460886
0.8012766807196655
0.5421418285099097
0.4499450364518579
0.4535916669729816
0.8207307144186304
0.8263203514132035
0.17307855231252983
0.16080917009604728
0.8298912986771143
0.4227320138545396
1.0017901843441663
0.1614080163824811
0.8699340416733169
0.8745312940041753
0.38016138385137555
0.8921353323216565
1.0114447034933955
0.15397249617189906
0.1889955099717796
0.6502548072913015
0.34467250618514206
0.6452785070843156
0.6579358287995245
0.11275678046793586
0.6318505393777266
0.35953915360950395
0.3595593285250159
0.0035230015405177556
0.4764964627437665
0.2867049167190449
0.7003399176318356
0.7253687839363154
0.361315302216073
0.8406078535437599
0.6352719520495799
0.6351135909791291
0.6181676386712902
0.007272859963146825
0.010649685185159715
0.1802256340266336
0.7871200388222815
-0.01088521145111313
0.898551118626109
0.8899364507589337
0.8145543577089479
-0.006971588877113396
-0.011251347145621508
0.20444321006715727
0.3648933405013804
-0.005967630530154697
1.0053487771048994
0.35469420480232755
0.8586331611208804
1.0057789741147944
0.8356216544087081
0.1554416680418331
1.015752978716797
-0.006917888672043591
0.13029648838909808
0.9935482196077494
-0.003380937585117246
0.33284481748301137
-0.0016427837107715357
0.6661482495034284
0.0027528125745320147
1.006504483614043
1.0091891253936753
0.14173465646140906
0.5044213524339937
0.1861440000036859
0.9993157588886822
0.8509356612425207
1.0001295055066601
0.3675435898089667
0.9994702970060283
1.0110127664644595
0.15577184712765285
0.1151113181694729
-0.0035611237188862468
0.323156480581785
0.6214117821825511
0.5888771541271204
0.41427550092809395
0.5512407500997234
1.0101751498524103
0.2607151857029328
0.5648842124797306
1.004436337029284
-0.003098774664772627
-0.006528504098525113
0.2198656791611034
0.4224571103459618
0.5619974447893764
-0.003176951680024376
0.895868269557474
1.0170219023479146
0.8799669389921535
0.11689596078720726
0.8855427701247374
0.8751086166501766
0.6095774819436147
0.11200039019369454
0.8661249847543728
-0.006459711863077999
0.3107623575479137
0.000741231829146598
0.9042090676938352
0.0928262923321142
-0.0057783687855397945
0.5696716821060567
0.5536424209352484
1.012264212200517
1.0218917627205653
1.007862495944527
-1.5902299757630096e-05
0.4407254645448489
0.6389219445203043
0.6436202471070193
0.6455824299103906
0.3518402791160739
0.3480253076910851
0.35703070438138196
0.9220322322075581
1.036884787617383
0.9965794734927131
0.9919015914013686
0.9530812510900704
0.6828262895628655
0.7173456541700736
-0.00789609362155136
0.07854923752954678
0.7514374647990932
0.6787551124419459
0.2825963642332858
0.8770713445846652
0.11150220163730333
0.10064236367544332
0.683076845943096
0.5983322864893202
0.43789327036295744
0.9979390289213734
1.0053207109058295
0.7410531223416218
0.1223769427651697
0.9082439061389664
0.24791746759592262
0.9380402909339307
0.06920092131985828
1.0041413519943077
0.0019503422134531847
0.38628233894437297
0.5994123551388969
0.3821430582265543
0.8216552295500179
0.05973602218324554
0.5724539175730611
0.3867532389404411
0.7954243755268054
-0.0039271142852224895
-0.009639827407479703
0.19306618844286966
0.21306278174475865
0.0738815175325906
0.13527986471743536
0.9144475281036157
0.7937929027129503
0.1996763224854121
0.749409818413261
0.24529881036582374
0.9097002386592211
0.8691808922873462
0.865728273895858
-0.014054384900324107
0.9202315203145032
0.3762199201420835
0.25307862647202733
1.0054113406617458
0.2050687588235961
0.546111173846961
0.6853552678901482
0.5872939030185335
0.6189108487937861
0.05457377101625415
0.9329288885247159
0.9317054733435883
0.08501297606946762
0.7062299530943907
-0.012888562121614804
1.0113165287947246
1.0081683492965898
0.04823612668605607
0.07325242044736223
0.8738086621880488
0.2742292464798323
0.9315294529836448
0.46784320883019814
0.8231666548165507
-0.0004166749665850618
0.6093923799778141
0.3781226079059245
0.38594574290901373
1.003966206114891
-0.004629741749315296
0.568826377602222
-0.012199715001457037
0.41658524723739976
0.07974561146357835
-0.003480021532803695
0.2712562613857543
0.6024466999429041
0.7291362979432408
0.7422866889061122
0.9278190202911233
0.06775673916547993
0.27603492732985824
0.22753339226759864
0.7224323726041291
1.008708654353381
0.2574722287851184
0.09107220418661
0.2298334462268782
0.06830013889489718
0.9001711218248178
0.06512951514836804
0.23983781476014665
0.7517903138219403
0.7492787253254036
0.760163361171987
0.4127788087561033
1.013419541095745
0.3984946542794216
0.8893764735296544
-0.005253760512904412
0.06802686738827265
0.05099550410447876
0.5792426282341521
0.09477121625205756
0.0006082244830490103
0.060671553063933854
0.08373587079774042
0.42554829145369283
0.5557684230837358
0.038252692121365436
0.22873286152135205
-0.0029420985555613953
1.003175270494168
0.8820818735644285
0.43505860417798214
0.5555728029778999
0.6026907827280575
0.9121461734665133
0.06994385177636969
0.0657672828300454
0.9989844105164642
0.04117805188545349
0.5190756065806197
0.35048074326813794
0.14140227101242095
-0.004703781264692039
0.7512798429513111
0.9336854218531789
0.17960413452675497
0.1597448309830721
0.8086982603112409
1.005341255591188
0.05305760255405954
0.9198062013477123
0.9203290161087767
0.45102946721987536
0.4508576986318702
1.004552702785856
0.24011392072553692
0.34237605062720383
0.39973518505968286
-0.002547013161108686
0.9525333542310247
0.952721020211112
0.2552420664141303
0.5783568508655472
0.7922590696617592
0.7923537824131989
0.2136083684985115
0.7929704827185385
0.2671679997117647
0.8430968832893206
0.8463872472529346
0.5897231709372456
0.8636885715262729
0.5940582112761048
0.06965694338490826
0.9248780499930516
0.4094498341687457
0.5895084113683224
0.3984111384561571
-0.013348868792143191
0.3301971982981918
0.06517789658710425
-0.003896237038778811
0.5595587077797418
0.14621481836328207
0.24402508423597982
0.08672245215952501
0.7560272417428157
0.8381216524012592
0.9642855541482477
0.5688693908049768
0.003683513707184658
0.4294324937149737
0.09557464094066187
1.0005472105607744
1.0024381804244127
-0.005387572914384429
0.06061108709196691
0.9304111356587441
-0.00034183210588691716
-0.010269706730261445
0.2730788198568562
0.7189745204570404
0.4517732317129793
1.004716217940687
0.2740169083309739
0.7788312396324061
0.23495759138667582
0.7607143553617468
0.23050428288069794
0.9783642996946493
0.002691776747480145
0.4223712994802965
1.0045683051810668
0.943853740910634
0.05898221361999462

SCALARS Omega double
LOOKUP_TABLE default
-7.708316461544033
-1.1332662305234613
8.33442976501066
15.610527496015118
35.50526422637124
-6.82533415433241
1.9835520363360537
-4.880036075300865
-0.4939036282212652
3.03754812740288
-0.07445509110992267
-1.6541621656093444
0.8834582650753672
2.37754804073821
0.19623222594865966
0.7321070092521311
0.5483096997119844
0.8230677290215016
2.543676682940362
-0.28012661285029894
2.2591682652038605
1.5760086287366049
-1.8297913937337897
0.5120430437523567
1.4917289700164267
1.0641217134700012
0.5460351745377444
-0.5355940917402172
-0.03628336102626314
1.8634663114500547
1.144108057218483
-0.029400235161251245
1.4471618172682446
0.7571939550251577
0.32823111278885264
1.5416912198681505
0.9600372208887422
0.55409913910565
2.0442543944315505
1.1263412619368267
1.8145567971788938
0.8826942028474875
0.3467422046389504
0.661729683513477
1.3465279786545181
1.1845975092851073
3.0457309665008214
0.08048037400002019
-1.639816456260119
2.9850393387081775
1.359530050171532
3.2671190749703696
10.471309096398759
-6.608119956428087
-0.06877952207988197
1.3609219535696555
0.9447734746617423
-0.05241124506945965
-0.22117120213756647
-0.9983804113447774
-1.8265228850041255
-2.531814358172654
-0.5936500997118515
-2.0225275531710563
-1.439967058807106
0.2376266429975695
-1.3791302050194336
-0.33250494880695014
-1.2214187926587243
-1.1484407781469346
-0.046489604674875985
-0.8407140498440799
-0.5357059650268596
0.7350859595371558
-2.522940125697433
-0.27766154269120574
1.0084563847848258
-2.3101184454022388
-0.6655224362549833
0.7299704646363031
-1.7944895078516179
-1.1249546057920923
-0.08186570292705603
-1.0619809006734948
-0.5810171322662534
-1.4904134355240464
0.8449587504631094
-0.08193301056622426
-1.5325914728024814
-1.5646193765752952
-0.7829425384643349
1.5573940670968567
-1.938101254744703
-1.685184008802489
0.6756294294844517
-1.0971725264366803
-1.4846219241770058
0.2555360717972574
-0.3185045365731231
-1.829996418595151
-1.4730742957405487
0.32921851044342376
-2.455613675839387
-0.405031333195063
-2.7540096640316074
-0.19084696452712058
0.42891793918954413
-2.211900381729764
-1.6801455420179006
-0.6728392935799192
1.1470301444592819
-4.481127011941016
2.731801734826001
0.386663665808212
-0.10343910516816096
-0.8459436131320772
1.4265974312355902
-6.004605819076655
-2.3699529619268342
-42.37822240553464
-0.004671823156068719
0.0010027727669005275
-0.000544822761869125
0.0017788156726377873
3.7602092257954474e-05
-0.00011536027970194773
0.0018143748113340552
-0.19794907294079284
-0.04135262688992733
0.038946603522884725
0.006821240660537101
-0.14748806152951802
0.04106269635504552
-0.019879669716880738
-0.0702665995688667
-0.08478372819532608
0.12488395130327044
0.027113743013052128
0.027158600094479915
0.027255317441820366
0.6714094865059868
0.18553681930314006
-0.1380023540592638
0.6538487676390751
-0.5887308305354118
-1.060970674871944
-0.9573729703023135
1.226823621685221
1.4492329887257276
1.0588989740019379
-1.9098799888986764
-1.0283387947322007
-0.9261303723839112
-0.7565056862478967
1.279860980074424
0.8938391830567998
1.5234178721630094
1.513707702516807
1.6117885800954272
-1.713910236056505
-1.7306594298002858
-2.0678386684024455
-2.4840238654632314
-0.8136725618326922
-0.02832965852987258
-2.53202874306926e-05
-6.797332922532109
-3.5002226408997843
2.984492075099142
-3.397448919265577
3.0208308723913704
2.8509445730590492
-0.08963642101707998
-4.039035651596429
0.0028508626581996133
0.003262986148531029
-0.00212048636778872
-0.0007930597837363841
-0.00020013323695766293
0.003455529500834856
0.0006727128921960485
0.0007467447140399169
-0.0034945265983202787
0.0031886969722815044
0.0022752795236482518
-4.3563862662627235
4.833705008269052
5.424279501711307
-5.3764890398630465
5.86480865850763
6.019466263924851
4.687756324040772
-5.469403579789682
4.894364895053364
5.228916636129675
-5.7362313389872694
-3.8234781451383535
-6.164471495219087
7.476636695159534
5.383108146551735
5.49773523293106
-0.0011791839159925152
12.454494095757902
7.169024862568354
-6.78785990893785
0.019606190818169077
0.3095667503050608
0.024098254531412087
-5.955841513291605
-0.6159016225868477
-7.133045261849224
0.07385700162138657
-0.027571228294783263
0.03256284683780256
0.016900168383866973
-0.047678993252654026
-0.014163271176036956
-5.237151089847549
-0.2071189505308893
6.314948853678377
-0.11377021774844588
0.1577925292610911
-0.02345610746124471
-0.009282171971927378
5.2396877081742
-0.009188859067972859
-0.007674676163730438
0.0023241995375086894
-0.0023766221517126504
-6.423912892265349
-1.098127906901331
-7.5832957855161975
-7.700334791918154
-8.10410543999303
-0.013583855465422946
-7.139215658960908
-3.8208649901663105
0.01585401900635414
-0.041672274596969504
-0.027931949195743776
0.0032758640579228213
0.09562529938549083
0.006126627946108782
0.0109862664706929
-0.019429938022713117
-0.007831324843292718
-0.03182212476512903
0.009086788883564213
0.23685066228270013
8.081007299265137
-8.730192759551818
-12.666480069230957
-8.035513595455587
-12.783335551353144
8.833733990632203
9.552481586837569
0.011259346440239482
9.092012270859584
-0.14817661391502393
-0.027289797176086737
9.418713534437222
-7.271317136393019
9.645088264240032
8.422545208450433
-8.22636408396847
8.214939151913809
-0.020883187789456036
6.149824643196636
8.623807499023961
-0.011407305199015567
-11.745036943186507
-12.399060793789264
-9.473496469132716
8.855635374917854
7.679766556864838
-0.6095535751162455
10.352094590231353
-0.29250848107978294
-13.70504051387311
0.04314942205294276
-0.004734841344633759
-0.02691928203928149
23.69187655911987
-7.6105518849684755
0.0669250344971077
-0.3430485088112621
0.4881251973919917
0.15307262951516243
0.2798264923212876
14.810323973358566
0.06607816314295815
-11.522782406987105
12.305530612769541
10.095058783029602
-1.189061829686727
0.013255761512146814
-0.23035612137384892
11.407806159442043
-10.475160184551472
0.8291348267583496
-0.004700500953952175
-1.5674820095427713
-0.42804302567126984
-9.186507487281043
3.28374114743162
12.357651005715097
8.817090743997067
-1.2594011429767304
-0.2959511831154944
-14.68715505268543
-0.007708835821332273
-13.742908207382767
-1.332071669787194
-0.1757534428663203
-13.010433986060022
-13.341043725414615
0.002735029520599383
-0.0024308010103954365
0.010902117819407626
0.005719107725074733
-0.004006613163835909
-12.299762904699222
0.518766396356495
-13.447623181790282
0.019771550824265245
-0.8838363668899658
-2.7643939941281626
14.308599087207824
0.16194587475019703
-0.32624915862128334
0.1768988535712974
0.059544617405186864
-0.25040401552309716
0.09023139164015873
13.54446092614662
-11.66408437845782
-0.9996687044310426
0.9130968790571518
-0.46353035227409034
1.7986833259962152e-05
-0.0014425678264648565
1.041507322093578
-3.029892110976498
0.01070154793232282
-0.004808260766009978
-0.005818137543421003
0.00048535191756146433
-0.0024893473871401093
-7.427594261519165
-7.369610941924796
-0.8245097190134317
0.8196759087154714
0.6098873705192343
0.00835901016333042
0.002691473868813647
0.000785808797406478
-14.334692402892609
-0.0016886222711243225
0.44088902124243
-0.7684762403407689
14.66375748933144
-0.2018411003070544
-0.007475001470431217
0.052172902987608016
-0.005786892173082338
0.8874642213401881
0.0015532862435714031
13.084323126177463
-0.0003179595636179865
9.632626942255067
8.748938357877316
1.6319623617093755
1.2663019423056558
5.671153961018541
-11.632734844754722
-0.19791754308700402
-0.0005789483166226452
0.002589195434798795
-0.010450715491612163
-0.1811337987602447