# vtk DataFile Version 1.0
2D Simulation C++
ASCII
DATASET UNSTRUCTURED_GRID
FIELD FieldData 1
NODES 1 2 int
715 1308

POINTS 715 double
0.0 0.0 0.0
5.0 0.0 0.0
5.0 1.0 0.0
0.0 1.0 0.0
0.10000000149011612 1.0 0.0
0.20000000298023224 1.0 0.0
0.30000001192092896 1.0 0.0
0.4000000059604645 1.0 0.0
0.5 1.0 0.0
0.6000000238418579 1.0 0.0
0.699999988079071 1.0 0.0
0.800000011920929 1.0 0.0
0.8999999761581421 1.0 0.0
1.0 1.0 0.0
1.100000023841858 1.0 0.0
1.2000000476837158 1.0 0.0
1.2999999523162842 1.0 0.0
1.399999976158142 1.0 0.0
1.5 1.0 0.0
1.600000023841858 1.0 0.0
1.7000000476837158 1.0 0.0
1.7999999523162842 1.0 0.0
1.899999976158142 1.0 0.0
2.0 1.0 0.0
2.0999999046325684 1.0 0.0
2.200000047683716 1.0 0.0
2.299999952316284 1.0 0.0
2.4000000953674316 1.0 0.0
2.5 1.0 0.0
2.5999999046325684 1.0 0.0
2.700000047683716 1.0 0.0
2.799999952316284 1.0 0.0
2.9000000953674316 1.0 0.0
3.0 1.0 0.0
3.0999999046325684 1.0 0.0
3.200000047683716 1.0 0.0
3.299999952316284 1.0 0.0
3.4000000953674316 1.0 0.0
3.5 1.0 0.0
3.5999999046325684 1.0 0.0
3.700000047683716 1.0 0.0
3.799999952316284 1.0 0.0
3.9000000953674316 1.0 0.0
4.0 1.0 0.0
4.099999904632568 1.0 0.0
4.199999809265137 1.0 0.0
4.300000190734863 1.0 0.0
4.400000095367432 1.0 0.0
4.5 1.0 0.0
4.599999904632568 1.0 0.0
4.699999809265137 1.0 0.0
4.800000190734863 1.0 0.0
4.900000095367432 1.0 0.0
5.0 0.8999999761581421 0.0
5.0 0.800000011920929 0.0
5.0 0.699999988079071 0.0
5.0 0.6000000238418579 0.0
5.0 0.5 0.0
5.0 0.4000000059604645 0.0
5.0 0.30000001192092896 0.0
5.0 0.20000000298023224 0.0
5.0 0.10000000149011612 0.0
4.900000095367432 0.0 0.0
4.800000190734863 0.0 0.0
4.699999809265137 0.0 0.0
4.599999904632568 0.0 0.0
4.5 0.0 0.0
4.400000095367432 0.0 0.0
4.300000190734863 0.0 0.0
4.199999809265137 0.0 0.0
4.099999904632568 0.0 0.0
4.0 0.0 0.0
3.9000000953674316 0.0 0.0
3.799999952316284 0.0 0.0
3.700000047683716 0.0 0.0
3.5999999046325684 0.0 0.0
3.5 0.0 0.0
3.4000000953674316 0.0 0.0
3.299999952316284 0.0 0.0
3.200000047683716 0.0 0.0
3.0999999046325684 0.0 0.0
3.0 0.0 0.0
2.9000000953674316 0.0 0.0
2.799999952316284 0.0 0.0
2.700000047683716 0.0 0.0
2.5999999046325684 0.0 0.0
2.5 0.0 0.0
2.4000000953674316 0.0 0.0
2.299999952316284 0.0 0.0
2.200000047683716 0.0 0.0
2.0999999046325684 0.0 0.0
2.0 0.0 0.0
1.899999976158142 0.0 0.0
1.7999999523162842 0.0 0.0
1.7000000476837158 0.0 0.0
1.600000023841858 0.0 0.0
1.5 0.0 0.0
1.399999976158142 0.0 0.0
1.2999999523162842 0.0 0.0
1.2000000476837158 0.0 0.0
1.100000023841858 0.0 0.0
1.0 0.0 0.0
0.8999999761581421 0.0 0.0
0.800000011920929 0.0 0.0
0.699999988079071 0.0 0.0
0.6000000238418579 0.0 0.0
0.5 0.0 0.0
0.4000000059604645 0.0 0.0
0.30000001192092896 0.0 0.0
0.20000000298023224 0.0 0.0
0.10000000149011612 0.0 0.0
0.0 0.10000000149011612 0.0
0.0 0.20000000298023224 0.0
0.0 0.30000001192092896 0.0
0.0 0.4000000059604645 0.0
0.0 0.5 0.0
0.0 0.6000000238418579 0.0
0.0 0.699999988079071 0.0
0.0 0.800000011920929 0.0
0.0 0.8999999761581421 0.0
0.7496038675308228 0.5164291858673096 0.0
1.3451675176620483 0.5190238952636719 0.0
1.9462687969207764 0.4963642954826355 0.0
4.456614971160889 0.5060901641845703 0.0
3.864220380783081 0.4866538345813751 0.0
3.249823808670044 0.482722669839859 0.0
2.6500000953674316 0.5 0.0
0.3810288906097412 0.399004191160202 0.0
2.308779239654541 0.3797946870326996 0.0
1.0499999523162842 0.6625000238418579 0.0
1.644740104675293 0.6598879098892212 0.0
4.150000095367432 0.3375000059604645 0.0
3.555316209793091 0.3343118131160736 0.0
2.9446933269500732 0.3401789665222168 0.0
1.6342840194702148 0.3290160894393921 0.0
1.0591840744018555 0.33908534049987793 0.0
2.9654481410980225 0.6753292679786682 0.0
3.5534629821777344 0.6835107207298279 0.0
4.153462886810303 0.6835107207298279 0.0
2.2139804363250732 0.6805098056793213 0.0
0.4914395809173584 0.6739721894264221 0.0
4.691666603088379 0.6916666626930237 0.0
4.691666603088379 0.3083333373069763 0.0
2.4872219562530518 0.7236665487289429 0.0
0.6240421533584595 0.2677222192287445 0.0
2.0697431564331055 0.2657754421234131 0.0
2.5389034748077393 0.26082900166511536 0.0
0.8147311806678772 0.7450684309005737 0.0
1.2897310256958008 0.743314266204834 0.0
1.8853894472122192 0.7450258731842041 0.0
4.382374286651611 0.23655959963798523 0.0
3.910269021987915 0.25668570399284363 0.0
3.1838724613189697 0.25397706031799316 0.0
1.398239254951477 0.2614254057407379 0.0
3.201760768890381 0.7385746240615845 0.0
3.8017609119415283 0.7385746240615845 0.0
4.39177942276001 0.7466779351234436 0.0
0.25301694869995117 0.7458874583244324 0.0
2.7258167266845703 0.7600342631340027 0.0
0.84163498878479 0.2263137847185135 0.0
0.22429518401622772 0.22429518401622772 0.0
2.7605957984924316 0.22504857182502747 0.0
1.8330284357070923 0.2150011658668518 0.0
0.2192869633436203 0.5323538780212402 0.0
4.7908525466918945 0.5038931369781494 0.0
2.466000556945801 0.5376454591751099 0.0
3.7061264514923096 0.17723728716373444 0.0
3.3929696083068848 0.20266839861869812 0.0
1.4905184507369995 0.7937026619911194 0.0
1.2104878425598145 0.20361483097076416 0.0
3.9895122051239014 0.7963851690292358 0.0
3.389512300491333 0.7963851690292358 0.0
0.5652223825454712 0.5070380568504333 0.0
0.44509074091911316 0.19716571271419525 0.0
2.1318352222442627 0.5042122602462769 0.0
1.548349142074585 0.4954715371131897 0.0
3.050636053085327 0.5004673004150391 0.0
0.9511125087738037 0.498258113861084 0.0
3.651650905609131 0.5045284628868103 0.0
4.248488903045654 0.4980509281158447 0.0
1.1537858247756958 0.49593159556388855 0.0
4.050199031829834 0.49993085861206055 0.0
3.464722156524658 0.509624183177948 0.0
1.749653697013855 0.5001751780509949 0.0
2.851828098297119 0.5057260394096375 0.0
2.359710216522217 0.1888567954301834 0.0
2.0499017238616943 0.8199846148490906 0.0
0.6430503129959106 0.8181284070014954 0.0
4.560274600982666 0.1724673956632614 0.0
4.55863094329834 0.8299665451049805 0.0
2.321284055709839 0.8242537379264832 0.0
4.815218925476074 0.8345447778701782 0.0
4.837246894836426 0.16590170562267303 0.0
0.9682294130325317 0.8331464529037476 0.0
1.730908751487732 0.827606201171875 0.0
4.220076560974121 0.17516615986824036 0.0
3.02066969871521 0.18326662480831146 0.0
1.5634372234344482 0.17044226825237274 0.0
3.035303831100464 0.8294908404350281 0.0
3.627507209777832 0.8360387086868286 0.0
4.2312469482421875 0.8315803408622742 0.0
4.618130683898926 0.5361976027488708 0.0
0.40311703085899353 0.8369210362434387 0.0
1.1473191976547241 0.8458209037780762 0.0
4.052680969238281 0.15417908132076263 0.0
2.020958423614502 0.6394158005714417 0.0
0.662188708782196 0.6447370648384094 0.0
4.5115838050842285 0.3538685142993927 0.0
1.0221220254898071 0.15309639275074005 0.0
0.3837882876396179 0.5515117049217224 0.0
3.548090934753418 0.15800617635250092 0.0
1.4348299503326416 0.6465393304824829 0.0
3.765170097351074 0.3534606993198395 0.0
3.3348300457000732 0.3534606993198395 0.0
1.2546738386154175 0.36384353041648865 0.0
3.945326089859009 0.636156439781189 0.0
3.3412928581237793 0.637225866317749 0.0
2.1904795169830322 0.17066854238510132 0.0
0.16392111778259277 0.38331863284111023 0.0
2.87723445892334 0.8265392184257507 0.0
4.8459792137146 0.6499902606010437 0.0
4.845625400543213 0.34837812185287476 0.0
2.771622896194458 0.38129922747612 0.0
4.5222978591918945 0.6578375697135925 0.0
2.604464530944824 0.8240283727645874 0.0
1.8544400930404663 0.3751189708709717 0.0
0.8566747903823853 0.38255012035369873 0.0
2.2932615280151367 0.5369129776954651 0.0
2.620572805404663 0.6496497392654419 0.0
0.7172287106513977 0.1490369737148285 0.0
0.1410960853099823 0.8303417563438416 0.0
1.7142322063446045 0.142862930893898 0.0
2.6314175128936768 0.14492936432361603 0.0
1.9832650423049927 0.1408119648694992 0.0
2.445650577545166 0.370038241147995 0.0
2.885042667388916 0.1455758661031723 0.0
0.13937503099441528 0.6546638011932373 0.0
0.9110832810401917 0.6349053978919983 0.0
3.088575839996338 0.3613528311252594 0.0
4.296638011932373 0.3563385307788849 0.0
1.1930090188980103 0.6355591416358948 0.0
1.788455843925476 0.6387236714363098 0.0
4.006990909576416 0.3644408583641052 0.0
1.4459187984466553 0.39242905378341675 0.0
4.354081153869629 0.6075709462165833 0.0
3.7540812492370605 0.6075709462165833 0.0
3.1591691970825195 0.6018876433372498 0.0
2.7615907192230225 0.6205627918243408 0.0
2.36276912689209 0.6735464930534363 0.0
1.3681535720825195 0.8630191683769226 0.0
3.8318464756011963 0.1369808316230774 0.0
3.275517463684082 0.10712132602930069 0.0
0.5630941987037659 0.12814241647720337 0.0
1.3237862586975098 0.10638008266687393 0.0
3.2733232975006104 0.8705052733421326 0.0
3.8733232021331787 0.8705052733421326 0.0
2.0396511554718018 0.38928428292274475 0.0
2.2168734073638916 0.8508136868476868 0.0
0.5163488388061523 0.3409615159034729 0.0
0.6547463536262512 0.3955095112323761 0.0
1.9480526447296143 0.8710126876831055 0.0
4.689375877380371 0.13700176775455475 0.0
4.698264122009277 0.8675068616867065 0.0
0.7578787803649902 0.8698469996452332 0.0
2.479548454284668 0.13692785799503326 0.0
2.4562506675720215 0.8735422492027283 0.0
2.171211004257202 0.3573116958141327 0.0
3.5117530822753906 0.853193998336792 0.0
4.107914924621582 0.8658969402313232 0.0
2.640726327896118 0.354434996843338 0.0
4.346996307373047 0.1279495507478714 0.0
0.3128283619880676 0.11246757209300995 0.0
0.136248379945755 0.12152919173240662 0.0
4.453908443450928 0.8629162907600403 0.0
1.6064813137054443 0.8679171800613403 0.0
0.3380795121192932 0.6626779437065125 0.0
0.5102446675300598 0.875635027885437 0.0
0.7425088882446289 0.2989330589771271 0.0
3.1349449157714844 0.10448489338159561 0.0
1.3287748098373413 0.6181886196136475 0.0
3.871795415878296 0.38215625286102295 0.0
3.229135036468506 0.3810797333717346 0.0
0.28971707820892334 0.8759857416152954 0.0
0.9214505553245544 0.11992674320936203 0.0
1.9219478368759155 0.6237660050392151 0.0
1.530794620513916 0.29603153467178345 0.0
3.072223663330078 0.7044162750244141 0.0
3.6722235679626465 0.7044162750244141 0.0
[...]
POINT_DATA 715
SCALARS Psi double
LOOKUP_TABLE default
0.0
0.0
1.0
1.0
1.0
1.0
1.0
1.0
1.0
1.0
1.0
1.0
1.0
1.0
1.0
1.0
1.0
1.0
1.0
1.0
1.0
1.0
1.0
1.0
1.0
1.0
1.0
1.0
1.0
1.0
1.0
1.0
1.0
1.0
1.0
1.0
1.0
1.0
1.0
1.0
1.0
1.0
1.0
1.0
1.0
1.0
1.0
1.0
1.0
1.0
1.0
1.0
1.0
0.9195252254467281
0.8665158398092234
0.7657724480428657
0.6289689670772617
0.47044572600802154
0.3108225760562365
0.1721680260086996
0.07018012067085078
0.018429313429517303
0.0
0.0
0.0
0.0
0.0
0.0
0.0
0.0
0.0
0.0
0.0
0.0
0.0
0.0
0.0
0.0
0.0
0.0
0.0
0.0
0.0
0.0
0.0
0.0
0.0
0.0
0.0
0.0
0.0
0.0
0.0
0.0
0.0
0.0
0.0
0.0
0.0
0.0
0.0
0.0
0.0
0.0
-0.0
0.0
0.0
0.0
0.0
0.0
0.0
0.027348939734409276
0.10769471140148078
0.20923024609884025
0.3108735684157307
0.4124641323910096
0.5108187451739039
0.6026376748243956
0.678450631963887
0.6416407408892442
0.5300709902091815
0.5436187076550225
0.5006092417877576
0.4949017818393308
0.47055146591662217
0.47028748008103893
0.5080666830197856
0.3204051695901685
0.30582124853869974
0.7747674653654425
0.7664983919196438
0.2268459366007408
0.22235984638163409
0.24271277183973286
0.22693404884096996
0.2548704423250727
0.793008838039205
0.7928318342937641
0.7909778652522861
0.7982540615384519
0.7598879290810301
0.7877669104779452
0.17502997857875568
0.8544386598620014
0.15683878040694274
0.1429317877230906
0.13727471042150413
0.8816151166045794
0.8776446823880657
0.8765594141374852
0.09065617147459382
0.12160546320045551
0.12150621982069863
0.13534536006871253
0.8701134368970497
0.8655486599161757
0.8706985710133038
0.7934738866030651
0.9004033402780595
0.11060158322167352
0.1112712002243861
0.09398935443352141
0.0816889356091375
0.4645681806148449
0.47953479585122344
0.5718853984821286
0.03970933646584312
0.06203902146961746
0.9299548505152022
0.06977447705882008
0.9275331343568692
0.927622523900767
0.4954575297134974
0.07117513393645532
0.5145987958176761
0.5012682811325417
0.5054977763072911
0.5098939714602994
0.5021387100395248
0.4861110445177631
0.5069674771796464
0.49200270000684126
0.5123499020642208
0.5075503594729409
0.5175460654243823
0.05619153742593856
0.9538089787451222
0.9590469288929496
0.036351244459941666
0.9542818833995925
0.9594950329078605
0.9430803729271446
0.027557757043341864
0.9639138778003357
0.9568824917242975
0.03993587808764371
0.05116953312069668
0.04066323587971272
0.9655634073064335
0.9620806729967826
0.959124628804273
0.5411631335846656
0.9786722693405843
0.9709319899289137
0.029482350243350074
0.735300702124135
0.7344621056107762
0.24299463568263657
0.03679630730816841
0.5292900236137036
0.028770480267534714
0.7489944239717008
0.25072171650555514
0.25450109023167383
0.28700200354845384
0.7198553918331713
0.7253342488972939
0.04340887783913042
0.2947966686073014
0.9645770441021346
0.716292729453034
0.22529146119578403
0.3087218805779108
0.7454035766338192
0.9599649647993794
0.2981989208940198
0.3223246036510998
0.5700630093753031
0.7545645497558747
0.03726257208397603
0.8225966365182297
0.02535055455992369
0.026495000631460652
0.024637598042052827
0.29109568710804234
0.025652023370486894
0.5837988822826422
0.7316995743854976
0.27302138203222187
0.251735040513953
0.733841175462452
0.7334922067143149
0.269048842711976
0.329457146090293
0.6692095274134381
0.6749088850389241
0.6739110023559184
0.7091379283049422
0.7867304487467357
0.9791929155077034
0.017502904751216825
0.00188443550782946
0.021262626712035854
0.0011064139115362537
0.9816527990406324
0.9827233613206977
0.3217563933563242
0.9761286569997991
0.24963486357505313
0.3344908997270532
0.9853582197307694
0.019382898433885718
0.9791617678897602
0.9849560807697495
0.02268610071586507
0.9841915668192872
0.27093194417701477
0.9702956783210424
0.9807558994453506
0.26725373864635543
0.005729433553025473
0.0060113871003999115
0.02258994744836994
0.9777729509048148
0.9812216862578538
0.6942344176617405
0.9922279977261433
0.1999881717049596
0.0030541794005499584
0.7057679707527761
0.29692261821941074
0.3011153531848071
1.0187569259165619
0.021836782926683614
0.7100306409267115
0.18100918252388984
0.8304474298303534
0.820541017344533
0.817799138847684
1.0057322417521948
0.6891967285790784
0.004116756754384919
0.9948182808456915
0.9943978322186219
0.15506172702114754
0.32283410017004516
0.18122688006894444
0.9957624693522533
0.003643832944155536
0.8691477710726863
0.2912598690082383
0.12750973777487742
0.34094401386550455
0.011358586099283354
0.1619967955212324
0.9905622551525748
0.9901125764324041
0.12386119189938449
0.18932859404321747
-0.0015323299957822375
0.4392372875717104
-0.0033339407469031336
0.40476546217211146
0.18975945975277303
-0.0037127337539064214
0.0008145328175834699
0.41069972731828547
0.4258438419933434
0.4144213792318806
0.59256631655501
0.591175933089522
0.0031333195690496393
0.5527226685989234
0.0016288450185013136
0.6947267468508633
0.1263471543781208
0.6021282766661216
1.00105988591265
0.808063874654529
0.1732340301367391
0.8052392271505027
0.18114217074405092
0.19987906371783698
0.8172221250796421
0.998343576890212
0.001641142453818693
0.13074445672505075
0.8665621523895611
0.1320123108971417
0.3305108504402799
0.6198847371174362
0.8298859705594295
0.1031280345844101
0.40812514604634403
0.41673674472915684
0.6106242035720183
0.5997134576317807
0.5945729609205063
0.02034867448405918
0.6538766658214228
0.1374262213414914
0.8671852130170585
0.8643047483265441
0.5958976811112627
0.4088367680771562
0.42200366012668566
0.0038516340132230126
0.5897349093378631
0.8686969269190749
0.13293661053719247
1.0063226909395082
0.19250226123774206
0.5743212071064092
0.6579467166947283
0.40564378989727534
0.8631850680587712
0.5815434357168221
0.999196364367644
0.449712260074315
0.988555955931284
0.9876845892957082
0.8965289991356633
0.8673492961313054
0.9585941482052932
0.005791593518556345
0.4240154786179417
0.7081283201533152
0.5767918722823683
0.6827887884821866
0.3652222224568747
0.10237606157931299
-0.0013925252349406758
0.44048602981507917
0.21144021045211908
0.8409069035328032
0.5648215358249106
0.4418645995595172
0.4463196876861372
0.851345513153059
0.8765997601673762
0.13574821662569891
0.1215469067770197
0.869164234274689
0.4085690972073505
0.9990503236934459
0.1423785844276069
0.9064341102516258
0.9079121767791319
0.3551098183057121
0.917846035805885
1.004049112853029
0.11256295652048104
0.14106388499055014
0.6793162576570203
0.323802089970502
0.6801812359677932
0.6894482001249163
0.08404801421001785
0.6698443933368539
0.33442198545080115
0.33361993858339795
0.006507241936549944
0.4718143627464544
0.26237258568247185
0.7409074423630734
0.7663683840768676
0.33898044550735407
0.8774393373542848
0.6682264949840703
0.6649960762079079
0.6376568028047878
0.007539012872649236
0.0074489608188879715
0.12850044568955485
0.8254705376100278
-0.0030581161321864944
0.9160105879307316
0.9162726293452399
0.8498552035958405
-0.003349870821610446
-0.0026931916565004787
0.1901403718245577
0.34035204758174015
0.0003604324625096703
1.0004127260940172
0.33699216359055384
0.8888449081298164
1.0001533406248562
0.8834822424943478
0.11883014256525803
1.0057723113325632
-0.0013214019280945364
0.10115071695028244
0.9955641679686871
-0.00039703844429406996
0.31753960865825726
0.0005932998352340648
0.6931785253195442
0.003664912317633717
1.0019083289158093
1.0043904528122458
0.11097544298633188
0.49314550625665854
0.14896274937433396
0.9977593623704402
0.8867151356684435
0.9988939663382104
0.32651182411067037
0.9993754193957194
1.0027988044824407
0.13331563828913914
0.08737726747754937
0.00010037378027804057
0.2785372490305764
0.64851479064203
0.585662538000204
0.41225264050019916
0.5648180060749511
1.003990335064554
0.2555401260041551
0.5726511514962012
0.999925236745717
0.00036876930769550196
-0.0012643931017205451
0.19364097447555356
0.40715755884445565
0.5773959631426331
-0.001795109323378434
0.922404139437423
1.0051685728305226
0.884799076564255
0.09053893937834112
0.9150305768596696
0.9095816443126055
0.6334773434811409
0.07648648436596031
0.897238898304456
-0.0018972516792738748
0.27648890110562
0.0026473632181631497
0.9331361078350194
0.06653112956668504
-0.0014552093963067618
0.5885935976060039
0.5399685025561152
1.004194030666776
1.0154459125982178
1.0014312203532851
0.001314310303232752
0.43318086394513566
0.6801701007265525
0.6879568086942517
0.6822460971482636
0.3195460134776478
0.3158017607486738
0.3280437406476953
0.9441243859402553
1.0353795359322524
0.997388656177607
0.9947930988229687
0.9635006534998797
0.6847774023817809
0.757318211222764
-0.0018894001060677284
0.06494519231325122
0.7909991863392063
0.7078117422653871
0.22813979233402226
0.8726693739312129
0.08332190711446175
0.07515121627140776
0.7187376880193811
0.6226287716739349
0.4344819947378927
0.9980586790920728
1.0011546589256703
0.7761534227381366
0.10035469866690847
0.9314917458148964
0.20937101130935332
0.9525155424625101
0.052370184556558494
1.0003137025121611
0.0021534910648359135
0.36545158544501627
0.6137588758242792
0.35872058114441835
0.833293627154687
0.0411748409095469
0.591315844188379
0.3755272145316886
0.8395218509550783
-0.0011334482402801378
-0.0034257994987448833
0.18944897483217768
0.17242442146915007
0.055891559319834666
0.10315629283626716
0.9457113469965309
0.8419716970991438
0.15915215437228955
0.8016893014399511
0.2032113184344495
0.906848078365209
0.9047224727491985
0.9038159547408768
-0.004537614471131124
0.9414578184841645
0.35873066611032156
0.21538723465238802
1.0004433004929236
0.16794193464722476
0.5579915295230611
0.7156575275449942
0.6114243435743169
0.641126342691172
0.04316817434029555
0.952699853519049
0.9522103868226562
0.05462414625330361
0.6962948141318405
-0.006147878138519187
1.0057286427092411
1.0036253170189038
0.036836705132680794
0.04054086703075357
0.8957353254577518
0.25191980971983047
0.9487922894889176
0.4503048792171119
0.8605133140816298
-0.0003983029308133008
0.6446827154918212
0.3552986708066374
0.3648809084867888
1.0010986087857008
-0.0020694911359938777
0.557340351799241
-0.007555549747483941
0.41321260743353544
0.06738916420752533
-0.0011414149579085076
0.23312414006687374
0.6273729016296914
0.7203126820390233
0.7849422015955647
0.9501436073700261
0.047416011004680715
0.23982992008877865
0.1834004438632806
0.7698401724421612
1.0043864242256046
0.23313077521395678
0.06763788937118828
0.18373778762724735
0.05283716108253328
0.930521393221498
0.04613931981266147
0.2093711060175977
0.7889018077662984
0.7931767074716218
0.8010514553493292
0.4076794778600831
1.0058767050195991
0.369822899569509
0.918263222765241
-0.001178744185268156
0.05019387916801796
0.03906415158026271
0.5960822728769476
0.06954800724091743
0.002097321316505518
0.059880409767064234
0.08157783507839332
0.41155114237534374
0.5633321559688715
0.02948225740643172
0.19191656501248783
-0.0018223372982410333
1.0000545361449107
0.918922553507021
0.4338035078561558
0.5719144394311256
0.6273867026716478
0.9393255070659166
0.05099203199181446
0.04978676292477236
0.998243261630391
0.030179017636067573
0.5060817873636355
0.3234444319611697
0.118702722225647
-0.0007736122367027153
0.7917746007714078
0.9494508298246332
0.14347302171478324
0.1252926711507728
0.85455449841348
1.001722923427542
0.04471352059469533
0.9440936303502706
0.9440012985781568
0.44384225390440696
0.44291332559963387
1.000758988041291
0.21417646019432648
0.3346769412430668
0.37488591376051417
0.0002611221152255617
0.9682657961526406
0.9689515620045748
0.24455519677463256
0.5990893590143103
0.8344426464735482
0.8359230980320758
0.18889816236682333
0.8309322443792692
0.23055165014188186
0.8832909951311338
0.8823985216568985
0.6197060067499086
0.8947607492363894
0.6200019578097348
0.05097567231880806
0.9505921737594745
0.391142319615814
0.6235691092595945
0.3769635694678126
-0.0071058940337665605
0.31269652772027723
0.056831052336392816
-0.0004293114035287552
0.5691997593163373
0.1151056010905493
0.2202885272417398
0.08609435812081735
0.800311252380892
0.874495946785282
0.976028102039658
0.5846892461028824
0.0032573934885289043
0.4039236444772211
0.07769952756929362
0.9991906465929373
1.0001699310694656
-0.0009042967292928676
0.0579287851786203
0.946719755083271
0.00041459840329449336
-0.004052015717071013
0.2333650733123
0.7684650245954967
0.4368645852222731
1.0027561096897553
0.22168572402535044
0.8205188525648386
0.19640792520945166
0.8093183729348469
0.19050045219244424
0.9786923011207086
0.0016194510156783118
0.4070542949593453
1.000886212533694
0.9587254026602559
0.04272953239233536

SCALARS Omega double
LOOKUP_TABLE default
-7.67649018945298
-1.1820432641304446
8.585947198395168
15.92019387372721
36.5109208360026
-6.477752775609453
2.4232730290104123
-4.464703110968174
-0.4278215833789878
1.9235724812623005
0.048307068631394216
-0.6367123433837039
0.48526375660913246
1.146298163910827
0.231887791402576
0.8263000684519999
0.5476200863662579
0.7962182635427943
1.5583663220467576
-0.0869647427544568
1.4181478846487847
1.2463463159766701
-0.409723988286193
0.492311071036669
1.0678259924917857
1.039239688098385
0.7639927264267685
0.24043220784669994
0.46083996965793417
1.4192857243964896
1.107137069788126
0.16107530793632907
1.3296513080570296
0.8621935908864332
0.41575163243612523
1.1145888277359313
0.7542730383024598
0.37859878870311714
1.3063065008206867
0.6779564685985687
1.3711437250434722
0.6886996529897097
0.4358135156655558
0.35028933816096103
0.9348498732189953
0.7187666882838917
2.1032932917789378
0.46150849670266275
-0.45473779965693967
2.143862425906152
0.8617093985463603
1.850525005016711
9.573792058693835
-7.86868963294593
0.5808140186536471
2.895757936972893
1.6591457476439082
-0.10603479791102026
-1.1863311798645237
-2.674239100185529
-3.3260293050264247
-1.5320123971860757
-0.25282278381301915
-0.6474153934969177
-1.051505753690312
-0.14245381469028912
-0.7014160285714525
-0.38513704241348024
-1.066251575469174
-0.818047050538668
-0.31119533372737107
-0.7188728549016817
-0.45847531560695753
0.0963900450224589
-1.760589047933722
-0.6495688245478805
0.3867736874913787
-1.4860064955888208
-0.5980793840982332
-0.30395014604106596
-1.1008124145394302
-0.8051602826197131
-0.4292021745326159
-1.0995441236932864
-0.8837087062415349
-1.4099007693782086
-0.17718215420403644
-0.5627962258533117
-0.9662570657601963
-1.078823326044814
-0.7450477472626259
0.6829385678861584
-1.395676773144755
-1.2256943372458504
0.20204456622139352
-0.8514590630002287
-1.119183388474468
-0.16237672755680338
-0.5574014655347043
-1.5260666993492014
-1.5307412515108219
-0.39308406839218885
-1.905994210319412
-0.4858826829946415
-2.0720728725733832
-0.4987522284173123
-0.13993649947210485
-2.069473339131441
-1.9109467156534392
-0.81902919501044
0.7511269765501221
-4.592711587059212
2.6458104047742297
0.31204342175552036
-0.025399407595532653
-0.8569629544570824
1.6497901631184708
-5.889254847737447
-2.340390605070529
-42.60834956840399
-0.5123686293701443
0.5160425666897603
0.10193479495283381
-0.060542755845325286
-0.27831206627809124
-0.2939241787213796
0.10674316161184044
-0.3761290511081984
-2.0328210427434366
3.1287674413651216
2.878176052555864
-2.97558382245144
-2.9871368526701536
-2.752846027449421
-2.8529579223421337
-2.0455014337166046
3.1736822281332655
3.217186194568839
3.1879156872764995
3.180337619591163
2.317207013888263
3.2207776929259424
-3.6075740461890833
3.999835137156688
-2.5860803871943183
-4.188190317518982
-4.169618784203955
5.215775121846309
4.3559439893049685
4.177635773597943
-4.846580515630408
-4.458194622932052
-4.343974786666697
-4.100570177889819
4.342795708090674
4.160030576432387
4.3898344224615435
1.9688145524486886
4.663759949120892
-3.967676136895568
-1.7028444930873907
-4.756779190215458
-5.0802673538893295
-1.4216885161709771
-0.21807777259507086
0.7671573839222805
-6.278370188536586
-5.440312107166113
5.051683152668303
-5.152242184391538
5.258632575113377
5.084133620904865
-1.2640911538703123
-4.899433455764129
0.22090007453433533
0.13509340824883612
0.06116339702580737
-0.1700648878337686
0.04654990927655005
-0.14712610609407364
0.06502476893688765
-0.07009541978118423
0.14566228921193722
0.1958159821858018
0.1948732696435238
-5.594779723671393
5.374052893289528
7.331856208732779
-5.743902533476158
5.826247138677168
5.867211474686713
6.1366242897507375
-5.307893727508786
5.64107282883161
5.241338866603398
-5.5781007841561605
-5.444060964554603
-6.3843181133720215
6.5089551448716705
5.600537845975643
5.7222394542547015
0.4110793573334372
13.251653023932509
5.600693284650999
-5.537583786036512
2.49463563584973
2.267440731329416
-2.7363323165068425
-5.4393342820979695
-2.3410328491734904
-5.888411097369015
2.7095849979632223
-2.65295436921447
-2.606939325155591
-1.8809301640110518
2.3270038281890124
2.425973342610367
-5.555766101531335
0.08635210479883225
6.058786152294812
2.0876624728900812
-2.6001974038463236
-1.9998790340933428
2.636654951047085
5.6309024148330185
-2.0424455617427832
-1.2681555964399218
0.7604843833324015
2.719278583155209
-6.110401946484255
-1.8663387865585268
-6.132373499455795
-6.034310448469443
-6.239596657946029
-2.2074985189551977
-6.076860510694616
-4.518053552409265
2.487824968027423
-2.3986469540029645
-2.659510599310683
2.5642938205256427
2.4930215665068722
-2.470527680677455
-1.5502779623981968
1.7741384186075881
1.8628171673456995
1.8263145396074252
2.214676413100476
3.1123819280451923
5.702076808191256
-6.446656005620151
-7.39428471879196
-6.641396960920619
-8.337609304658612
6.222385721902011
6.733538748606249
-1.8097454650245484
6.64081173500514
-0.9136139651479419
-1.0069444788950692
6.534152202077013
-5.273003544446225
7.8762431256689585
6.0062350108042715
-6.022217326523972
5.580639423398852
-2.4291884940810045
5.570220863740881
6.9140788269454925
-2.4823947173915215
-8.264033267588601
-10.849623221536133
-8.805214092139899
6.467068368777542
5.738649248846586
-1.0357438083175965
7.100510581393414
-2.1678366648254963
-7.704307136143376
2.23483978745853
-2.136247461562334
-2.093506438378639
23.70251228336825
-6.21479222613744
2.241649695361636
-3.471992229927176
3.721039336618149
3.5226122437371576
3.528491699300642
7.450230304155181
1.6267323508035254
-8.213527758103636
8.22079648754582
6.790258068959714
-1.4502506026249404
-1.8640223348121732
-3.5488506406794804
6.68460943227171
-6.593991367122067
4.192680045873004
-2.209378820326395
-3.7599969831299607
-0.44600748537123025
-6.195888692588642
3.2824877737227656
7.427391116757665
5.573464597838208
-4.361550161772623
-3.4210071595128313
-9.953440946811552
-0.5943042955916683
-7.8805658601489315
-1.4071372777843267
-3.4006927776306437
-8.533913497784038
-7.722955133241381
-0.9154462804975264
-0.748882426490089
-0.8581504230884276
0.7767578220236431
1.0282056021947894
-7.087402401268246
1.5121653615853203
-9.011034689002926
2.0693920488188065
-4.2714197264455604
-4.132633620270682
9.338987065565512
3.4196326874620766
-3.113581765874756
3.393511660125649
-3.5060659467516735
-3.289398701977683
3.478179082197596
6.7071373678322095
-6.295501623972498
-4.301347761128011
4.156955643192153
-4.186859410083584
-1.2839245028848079
1.2389568767267174
6.300596667317872
-10.013236723927585
-0.7855875177445614
-0.7307290619653204
1.1437227954216362
1.0600095488208718
0.976346618748998
-6.702165365286975
-8.023515383105785
-3.908941620147919
4.2591596122152975
4.15912107970271
0.9931419129169736
-0.9252295345009194
-0.7890317476038692
-8.574490109842902
1.0032707030992696
4.4096125550711625
-4.197796780052237
9.349636688307184
-3.387539341032189
-0.4402386469261913
0.20500888055341354
-0.9809209597215616
4.028862921052132
0.24151444312081163
8.354003761408094
-0.4696898261090806
6.457516624494731
6.06956654355704
4.547203127222079
5.4991315163989345
2.5106221215287925
-7.382451965439175
-1.2886384162784024
2.183579462293592
0.8585904173380289
1.9280928890730522
-2.3551170368667447
-4.6396125863291635
-10.004261609576645
-0.6223993277476513
0.7356135996733254
3.7336732153690764
0.7412388224812858
-0.5722103436948212
-0.5349671804258941
5.486288903438455
4.904073686184758
-4.123972607044971
-4.274545419840566