# vtk DataFile Version 1.0
2D Simulation C++
ASCII
DATASET UNSTRUCTURED_GRID
FIELD FieldData 1
NODES 1 2 int
715 1308

POINTS 715 double
0.0 0.0 0.0
5.0 0.0 0.0
5.0 1.0 0.0
0.0 1.0 0.0
0.10000000149011612 1.0 0.0
0.20000000298023224 1.0 0.0
0.30000001192092896 1.0 0.0
0.4000000059604645 1.0 0.0
0.5 1.0 0.0
0.6000000238418579 1.0 0.0
0.699999988079071 1.0 0.0
0.800000011920929 1.0 0.0
0.8999999761581421 1.0 0.0
1.0 1.0 0.0
1.100000023841858 1.0 0.0
1.2000000476837158 1.0 0.0
1.2999999523162842 1.0 0.0
1.399999976158142 1.0 0.0
1.5 1.0 0.0
1.600000023841858 1.0 0.0
1.7000000476837158 1.0 0.0
1.7999999523162842 1.0 0.0
1.899999976158142 1.0 0.0
2.0 1.0 0.0
2.0999999046325684 1.0 0.0
2.200000047683716 1.0 0.0
2.299999952316284 1.0 0.0
2.4000000953674316 1.0 0.0
2.5 1.0 0.0
2.5999999046325684 1.0 0.0
2.700000047683716 1.0 0.0
2.799999952316284 1.0 0.0
2.9000000953674316 1.0 0.0
3.0 1.0 0.0
3.0999999046325684 1.0 0.0
3.200000047683716 1.0 0.0
3.299999952316284 1.0 0.0
3.4000000953674316 1.0 0.0
3.5 1.0 0.0
3.5999999046325684 1.0 0.0
3.700000047683716 1.0 0.0
3.799999952316284 1.0 0.0
3.9000000953674316 1.0 0.0
4.0 1.0 0.0
4.099999904632568 1.0 0.0
4.199999809265137 1.0 0.0
4.300000190734863 1.0 0.0
4.400000095367432 1.0 0.0
4.5 1.0 0.0
4.599999904632568 1.0 0.0
4.699999809265137 1.0 0.0
4.800000190734863 1.0 0.0
4.900000095367432 1.0 0.0
5.0 0.8999999761581421 0.0
5.0 0.800000011920929 0.0
5.0 0.699999988079071 0.0
5.0 0.6000000238418579 0.0
5.0 0.5 0.0
5.0 0.4000000059604645 0.0
5.0 0.30000001192092896 0.0
5.0 0.20000000298023224 0.0
5.0 0.10000000149011612 0.0
4.900000095367432 0.0 0.0
4.800000190734863 0.0 0.0
4.699999809265137 0.0 0.0
4.599999904632568 0.0 0.0
4.5 0.0 0.0
4.400000095367432 0.0 0.0
4.300000190734863 0.0 0.0
4.199999809265137 0.0 0.0
4.099999904632568 0.0 0.0
4.0 0.0 0.0
3.9000000953674316 0.0 0.0
3.799999952316284 0.0 0.0
3.700000047683716 0.0 0.0
3.5999999046325684 0.0 0.0
3.5 0.0 0.0
3.4000000953674316 0.0 0.0
3.299999952316284 0.0 0.0
3.200000047683716 0.0 0.0
3.0999999046325684 0.0 0.0
3.0 0.0 0.0
2.9000000953674316 0.0 0.0
2.799999952316284 0.0 0.0
2.700000047683716 0.0 0.0
2.5999999046325684 0.0 0.0
2.5 0.0 0.0
2.4000000953674316 0.0 0.0
2.299999952316284 0.0 0.0
2.200000047683716 0.0 0.0
2.0999999046325684 0.0 0.0
2.0 0.0 0.0
1.899999976158142 0.0 0.0
1.7999999523162842 0.0 0.0
1.7000000476837158 0.0 0.0
1.600000023841858 0.0 0.0
1.5 0.0 0.0
1.399999976158142 0.0 0.0
1.2999999523162842 0.0 0.0
1.2000000476837158 0.0 0.0
1.100000023841858 0.0 0.0
1.0 0.0 0.0
0.8999999761581421 0.0 0.0
0.800000011920929 0.0 0.0
0.699999988079071 0.0 0.0
0.6000000238418579 0.0 0.0
0.5 0.0 0.0
0.4000000059604645 0.0 0.0
0.30000001192092896 0.0 0.0
0.20000000298023224 0.0 0.0
0.10000000149011612 0.0 0.0
0.0 0.10000000149011612 0.0
0.0 0.20000000298023224 0.0
0.0 0.30000001192092896 0.0
0.0 0.4000000059604645 0.0
0.0 0.5 0.0
0.0 0.6000000238418579 0.0
0.0 0.699999988079071 0.0
0.0 0.800000011920929 0.0
0.0 0.8999999761581421 0.0
0.7496038675308228 0.5164291858673096 0.0
1.3451675176620483 0.5190238952636719 0.0
1.9462687969207764 0.4963642954826355 0.0
4.456614971160889 0.5060901641845703 0.0
3.864220380783081 0.4866538345813751 0.0
3.249823808670044 0.482722669839859 0.0
2.6500000953674316 0.5 0.0
0.3810288906097412 0.399004191160202 0.0
2.308779239654541 0.3797946870326996 0.0
1.0499999523162842 0.6625000238418579 0.0
1.644740104675293 0.6598879098892212 0.0
4.150000095367432 0.3375000059604645 0.0
3.555316209793091 0.3343118131160736 0.0
2.9446933269500732 0.3401789665222168 0.0
1.6342840194702148 0.3290160894393921 0.0
1.0591840744018555 0.33908534049987793 0.0
2.9654481410980225 0.6753292679786682 0.0
3.5534629821777344 0.6835107207298279 0.0
4.153462886810303 0.6835107207298279 0.0
2.2139804363250732 0.6805098056793213 0.0
0.4914395809173584 0.6739721894264221 0.0
4.691666603088379 0.6916666626930237 0.0
4.691666603088379 0.3083333373069763 0.0
2.4872219562530518 0.7236665487289429 0.0
0.6240421533584595 0.2677222192287445 0.0
2.0697431564331055 0.2657754421234131 0.0
2.5389034748077393 0.26082900166511536 0.0
0.8147311806678772 0.7450684309005737 0.0
1.2897310256958008 0.743314266204834 0.0
1.8853894472122192 0.7450258731842041 0.0
4.382374286651611 0.23655959963798523 0.0
3.910269021987915 0.25668570399284363 0.0
3.1838724613189697 0.25397706031799316 0.0
1.398239254951477 0.2614254057407379 0.0
3.201760768890381 0.7385746240615845 0.0
3.8017609119415283 0.7385746240615845 0.0
4.39177942276001 0.7466779351234436 0.0
0.25301694869995117 0.7458874583244324 0.0
2.7258167266845703 0.7600342631340027 0.0
0.84163498878479 0.2263137847185135 0.0
0.22429518401622772 0.22429518401622772 0.0
2.7605957984924316 0.22504857182502747 0.0
1.8330284357070923 0.2150011658668518 0.0
0.2192869633436203 0.5323538780212402 0.0
4.7908525466918945 0.5038931369781494 0.0
2.466000556945801 0.5376454591751099 0.0
3.7061264514923096 0.17723728716373444 0.0
3.3929696083068848 0.20266839861869812 0.0
1.4905184507369995 0.7937026619911194 0.0
1.2104878425598145 0.20361483097076416 0.0
3.9895122051239014 0.7963851690292358 0.0
3.389512300491333 0.7963851690292358 0.0
0.5652223825454712 0.5070380568504333 0.0
0.44509074091911316 0.19716571271419525 0.0
2.1318352222442627 0.5042122602462769 0.0
1.548349142074585 0.4954715371131897 0.0
3.050636053085327 0.5004673004150391 0.0
0.9511125087738037 0.498258113861084 0.0
3.651650905609131 0.5045284628868103 0.0
4.248488903045654 0.4980509281158447 0.0
1.1537858247756958 0.49593159556388855 0.0
4.050199031829834 0.49993085861206055 0.0
3.464722156524658 0.509624183177948 0.0
1.749653697013855 0.5001751780509949 0.0
2.851828098297119 0.5057260394096375 0.0
2.359710216522217 0.1888567954301834 0.0
2.0499017238616943 0.8199846148490906 0.0
0.6430503129959106 0.8181284070014954 0.0
4.560274600982666 0.1724673956632614 0.0
4.55863094329834 0.8299665451049805 0.0
2.321284055709839 0.8242537379264832 0.0
4.815218925476074 0.8345447778701782 0.0
4.837246894836426 0.16590170562267303 0.0
0.9682294130325317 0.8331464529037476 0.0
1.730908751487732 0.827606201171875 0.0
4.220076560974121 0.17516615986824036 0.0
3.02066969871521 0.18326662480831146 0.0
1.5634372234344482 0.17044226825237274 0.0
3.035303831100464 0.8294908404350281 0.0
3.627507209777832 0.8360387086868286 0.0
4.2312469482421875 0.8315803408622742 0.0
4.618130683898926 0.5361976027488708 0.0
0.40311703085899353 0.8369210362434387 0.0
1.1473191976547241 0.8458209037780762 0.0
4.052680969238281 0.15417908132076263 0.0
2.020958423614502 0.6394158005714417 0.0
0.662188708782196 0.6447370648384094 0.0
4.5115838050842285 0.3538685142993927 0.0
1.0221220254898071 0.15309639275074005 0.0
0.3837882876396179 0.5515117049217224 0.0
3.548090934753418 0.15800617635250092 0.0
1.4348299503326416 0.6465393304824829 0.0
3.765170097351074 0.3534606993198395 0.0
3.3348300457000732 0.3534606993198395 0.0
1.2546738386154175 0.36384353041648865 0.0
3.945326089859009 0.636156439781189 0.0
3.3412928581237793 0.637225866317749 0.0
2.1904795169830322 0.17066854238510132 0.0
0.16392111778259277 0.38331863284111023 0.0
2.87723445892334 0.8265392184257507 0.0
4.8459792137146 0.6499902606010437 0.0
4.845625400543213 0.34837812185287476 0.0
2.771622896194458 0.38129922747612 0.0
4.5222978591918945 0.6578375697135925 0.0
2.604464530944824 0.8240283727645874 0.0
1.8544400930404663 0.3751189708709717 0.0
0.8566747903823853 0.38255012035369873 0.0
2.2932615280151367 0.5369129776954651 0.0
2.620572805404663 0.6496497392654419 0.0
0.7172287106513977 0.1490369737148285 0.0
0.1410960853099823 0.8303417563438416 0.0
1.7142322063446045 0.142862930893898 0.0
2.6314175128936768 0.14492936432361603 0.0
1.9832650423049927 0.1408119648694992 0.0
2.445650577545166 0.370038241147995 0.0
2.885042667388916 0.1455758661031723 0.0
0.13937503099441528 0.6546638011932373 0.0
0.9110832810401917 0.6349053978919983 0.0
3.088575839996338 0.3613528311252594 0.0
4.296638011932373 0.3563385307788849 0.0
1.1930090188980103 0.6355591416358948 0.0
1.788455843925476 0.6387236714363098 0.0
4.006990909576416 0.3644408583641052 0.0
1.4459187984466553 0.39242905378341675 0.0
4.354081153869629 0.6075709462165833 0.0
3.7540812492370605 0.6075709462165833 0.0
3.1591691970825195 0.6018876433372498 0.0
2.7615907192230225 0.6205627918243408 0.0
2.36276912689209 0.6735464930534363 0.0
1.3681535720825195 0.8630191683769226 0.0
3.8318464756011963 0.1369808316230774 0.0
3.275517463684082 0.10712132602930069 0.0
0.5630941987037659 0.12814241647720337 0.0
1.3237862586975098 0.10638008266687393 0.0
3.2733232975006104 0.8705052733421326 0.0
3.8733232021331787 0.8705052733421326 0.0
2.0396511554718018 0.38928428292274475 0.0
2.2168734073638916 0.8508136868476868 0.0
0.5163488388061523 0.3409615159034729 0.0
0.6547463536262512 0.3955095112323761 0.0
1.9480526447296143 0.8710126876831055 0.0
4.689375877380371 0.13700176775455475 0.0
4.698264122009277 0.8675068616867065 0.0
0.7578787803649902 0.8698469996452332 0.0
2.479548454284668 0.13692785799503326 0.0
2.4562506675720215 0.8735422492027283 0.0
2.171211004257202 0.3573116958141327 0.0
3.5117530822753906 0.853193998336792 0.0
4.107914924621582 0.8658969402313232 0.0
2.640726327896118 0.354434996843338 0.0
4.346996307373047 0.1279495507478714 0.0
0.3128283619880676 0.11246757209300995 0.0
0.136248379945755 0.12152919173240662 0.0
4.453908443450928 0.8629162907600403 0.0
1.6064813137054443 0.8679171800613403 0.0
0.3380795121192932 0.6626779437065125 0.0
0.5102446675300598 0.875635027885437 0.0
0.7425088882446289 0.2989330589771271 0.0
3.1349449157714844 0.10448489338159561 0.0
1.3287748098373413 0.6181886196136475 0.0
3.871795415878296 0.38215625286102295 0.0
3.229135036468506 0.3810797333717346 0.0
0.28971707820892334 0.8759857416152954 0.0
0.9214505553245544 0.11992674320936203 0.0
1.9219478368759155 0.6237660050392151 0.0
1.530794620513916 0.29603153467178345 0.0
3.072223663330078 0.7044162750244141 0.0
3.6722235679626465 0.7044162750244141 0.0
[...]
POINT_DATA 715
SCALARS Psi double
LOOKUP_TABLE default
0.0
0.0
1.0
1.0
1.0
1.0
1.0
1.0
1.0
1.0
1.0
1.0
1.0
1.0
1.0
1.0
1.0
1.0
1.0
1.0
1.0
1.0
1.0
1.0
1.0
1.0
1.0
1.0
1.0
1.0
1.0
1.0
1.0
1.0
1.0
1.0
1.0
1.0
1.0
1.0
1.0
1.0
1.0
1.0
1.0
1.0
1.0
1.0
1.0
1.0
1.0
1.0
1.0
0.9195051797422749
0.8664429526167099
0.7656454925664586
0.6288381064280489
0.470360297819891
0.31079924000225
0.17218326746596987
0.07019711947495785
0.018433344775837877
0.0
0.0
0.0
0.0
0.0
0.0
0.0
0.0
0.0
0.0
0.0
0.0
0.0
0.0
0.0
0.0
0.0
0.0
0.0
0.0
0.0
0.0
0.0
0.0
0.0
0.0
0.0
0.0
0.0
0.0
0.0
0.0
0.0
0.0
0.0
0.0
0.0
0.0
0.0
0.0
0.0
0.0
-0.0
0.0
0.0
0.0
0.0
0.0
0.0
0.027348950029835287
0.10769473749576791
0.20923028880314837
0.31087362583576733
0.41246419985924765
0.5108188156571617
0.6026377412933352
0.6784506882579519
0.641640769750227
0.5300716576708935
0.5436214381156755
0.5006312735164284
0.4947359091751056
0.47051582050719515
0.47042528718148774
0.5081589901706618
0.3204053353453176
0.30588711367058957
0.7747685181529318
0.7665041982578695
0.22679891061580748
0.22245390113067248
0.2428605508024881
0.22694110192306335
0.25487174436484056
0.7930366334170417
0.7928216464937923
0.7908239643013338
0.7982682644125716
0.7598881887061252
0.7876127362809487
0.17502043821515015
0.8544470997589128
0.15683908512254266
0.14295696805622338
0.13734506149645473
0.8816155557332592
0.8776460187701789
0.8765665077580274
0.09063893298971458
0.12161731535817474
0.12159561666324188
0.13534769230888757
0.8701212652126166
0.8654917018085689
0.8705789341773146
0.7934739932587248
0.9004066017870415
0.11060207721135032
0.11127123893488977
0.09405875838897321
0.08169583273172226
0.4645682851775197
0.4794220437806939
0.5719426481058554
0.03972671840055425
0.06207839041123348
0.9299564975208224
0.06977529591299686
0.9274770385274396
0.927615630013233
0.4954579102431444
0.07117521556166488
0.5146334986346626
0.5012739320178998
0.5056297976884205
0.5098950708725741
0.5021783463014224
0.4859545881737287
0.506969173535274
0.49189152347361054
0.5124436705587543
0.5075620621087096
0.5176595724723817
0.05621137463726285
0.9538132631662328
0.9590470679037474
0.036347619737853644
0.9542349321347795
0.9594988133244966
0.9430319646574462
0.027563612505448483
0.9639141714505353
0.9568845886320074
0.03993054354371823
0.0512097480221036
0.04066460707401098
0.9655615646639376
0.962070756197115
0.9590830654156823
0.5410007280517272
0.9786723264166324
0.9709323453512215
0.029483182203742218
0.7353160170947435
0.7344625465660278
0.24293666293439564
0.036796611659064636
0.5292902235662321
0.028784942893460695
0.7489973606054374
0.250764385709476
0.25463886542263764
0.2870041296893199
0.719741074270319
0.7253764100193405
0.043419176942126526
0.2947967353045696
0.9645770773794767
0.7161306248330063
0.22529753758900653
0.30886074389600654
0.7452224437185982
0.9599662385556227
0.29821661582389225
0.3223254729784766
0.570105288862923
0.7545893379654774
0.037262709217955596
0.8225966927142617
0.025351765590852803
0.02651085484866519
0.02464095389130769
0.29118237122354784
0.025668749942282573
0.5837989644095148
0.7317004027659941
0.2731747793469065
0.2516648614607151
0.7338426972925636
0.733501629678263
0.2690181295980907
0.3294610521136399
0.6690161160624797
0.6748663430954989
0.673983384925057
0.7091814362911038
0.786746924003106
0.9791933315671915
0.017507857453328307
0.0018806571113824256
0.02126267044053117
0.001106464125991215
0.9816504463051031
0.9827145922027363
0.32178917976069116
0.9761319466802829
0.24963512413633626
0.33449138096667824
0.9853592504021428
0.019379126909952228
0.9791396979901534
0.9849561638220482
0.022694174689544287
0.9841931944250936
0.27097839662163004
0.9702904834451253
0.9807387520094226
0.26737089364325034
0.005726802574961137
0.006011389451640273
0.022589955825130348
0.9777510825190321
0.9812222997267508
0.6942345859633018
0.9922280261587823
0.1999886972327915
0.003050936088493553
0.7057702242310366
0.2969265465969702
0.30126764092452707
1.0187569361382778
0.021836928355158963
0.7100444573467003
0.18101339484572068
0.8304667933416713
0.8205049163040737
0.8176488198022195
1.0057347512349881
0.6891973696438749
0.004116960836721419
0.9948183044644552
0.9943958827592295
0.15506181451589435
0.3227720977225656
0.18124616693403908
0.9957625640477612
0.0036450995932155016
0.8691554634464075
0.2911723085618891
0.12751049142198406
0.34094412235282445
0.01136041870447952
0.16199683115690927
0.9905625252735978
0.990112642766581
0.12389815141026152
0.1893389632979608
-0.0015323903401395504
0.4393289652136193
-0.003341054205399988
0.40476553708724367
0.18988518317721503
-0.003713117883958151
0.0008091029014349363
0.4105874848723157
0.42599070203281136
0.4145141423411476
0.5925676108152526
0.5911833797680002
0.0031306735115380936
0.5525925521050302
0.0016282527938021479
0.6947614274216821
0.12642800753779554
0.6021283899774935
1.001063818573389
0.8079387787063236
0.1732353771137116
0.8052451143392112
0.18124321763902862
0.19994467411542402
0.8172258164653113
0.9983435713156286
0.0016409353356616294
0.1307722467901632
0.8665640211483896
0.13210421325574778
0.33051196694751483
0.6197171029941438
0.8297595584683016
0.10316234109645146
0.40813341072105247
0.41673816124457963
0.6107152450657347
0.599754831173292
0.5944069375319344
0.020348797083629445
0.6538767324623894
0.13742800737859892
0.8671890482349405
0.8642273958868848
0.5958997104982515
0.4087852946386523
0.422157378130458
0.003847053238761605
0.5897497066802398
0.8686979262759028
0.13292634099567008
1.0063226756061006
0.1925665240669703
0.5743217036102937
0.6579470861427361
0.4055199257563048
0.8631941072744573
0.5815442813540009
0.9991963906218801
0.4497766839252966
0.9885504461971448
0.9876824135940359
0.8965324798582902
0.867349626290383
0.9585845960843591
0.005790094540433591
0.4240157278261516
0.7081769631367381
0.576816671284932
0.6828103211409671
0.3651779482710803
0.10245769017697988
-0.0013925216743786648
0.4403372541037656
0.21144028459475375
0.8409177542825151
0.5648253135377701
0.4418823406665831
0.4464519385630313
0.8513457870366795
0.8766003477455412
0.13584952083279597
0.12152211112572968
0.8691703473939757
0.40862141847141953
0.9990506004976317
0.1423787922589203
0.906417893523479
0.9078278960992829
0.35525772310056214
0.917847763722762
1.004049101066151
0.112545216320519
0.14104809112394065
0.6791277035353952
0.3238074527157744
0.6801679228701021
0.6895145721733663
0.08405175381712084
0.6698491941814841
0.3344920830556208
0.3337457500212674
0.006507242936587159
0.4719290374698222
0.2623753555437847
0.7408280939508828
0.7664042404245754
0.33899240596750974
0.8774444768738255
0.6682659994521839
0.6648480848057633
0.6374624179850253
0.0075404076317042365
0.007449065789275747
0.12851209903378513
0.8253363819074908
-0.0030581798481991982
0.9160107393740257
0.9162792859611881
0.8497248494874976
-0.0033508066558583438
-0.0027002113376868963
0.19014052199367854
0.3403770249291468
0.0003553524416731037
1.0004132748332046
0.33699282131576397
0.8887371581165684
1.0001546761856397
0.883482958036638
0.11881076900949496
1.005774328722453
-0.001328774069954168
0.1011964019011918
0.9955581383898702
-0.00039783847907379894
0.31754137415789624
0.000593294127495923
0.6929973528427932
0.0036624980274764752
1.0019108757450625
1.0043899258671094
0.11103545591722708
0.49314558007421255
0.14899676096279188
0.9977591152371085
0.8867215607459441
0.9988939562263361
0.3264650850578221
0.9993757165153936
1.002798800104689
0.1333165808732351
0.08741920097113472
9.792480376439382e-05
0.278478486719531
0.6485510555668497
0.5856628253339525
0.4122549603875874
0.5647192892853571
1.003991652050827
0.2555401763890625
0.5724691524880584
0.9999252156854356
0.00036878090007436566
-0.0012701946074800568
0.1936418018804359
0.4071577233388569
0.5774632378647788
-0.0017952786299382257
0.9223246571113728
1.0051705054441458
0.8847991873387782
0.09054127426736554
0.9150314095284531
0.909549005371119
0.6335384355017488
0.0764836987500888
0.8971465812380485
-0.001897296765795954
0.2765946761065813
0.0026459786775221623
0.9331368903310425
0.06653564321008522
-0.0014578536652739803
0.5886879720541129
0.5399686438682259
1.0041947796898127
1.01544590416173
1.0014322093936014
0.0013140947534974004
0.43319759053064166
0.6801711309078899
0.6879581849817119
0.6822545988843246
0.31945463088504705
0.3157382748176449
0.3282032496578383
0.9441266578771694
1.0353795261713459
0.9973889741579918
0.9947910327183855
0.9635016347037685
0.6847776269245168
0.7573391068260373
-0.0018952544533382789
0.06494534572918173
0.7910186545295594
0.7076581816414499
0.22815182279694501
0.8726693942110695
0.08338593315357415
0.07515582158314996
0.7187610836084671
0.6225464673696888
0.43448281446102804
0.998058731359333
1.0011567304214117
0.7759797105106166
0.1003550677634889
0.9314977449790923
0.2094907748258177
0.9525156195123773
0.052399843426720306
1.0003147472342184
0.002153506515937051
0.3654917943092195
0.6136049050861595
0.358846815438668
0.833293801568559
0.041167546514702294
0.5913495907295963
0.3755273030128983
0.8395275907174666
-0.0011338932228901369
-0.003431545246933111
0.18944902200233263
0.17254761753948483
0.05592354135294935
0.10317213964607122
0.9457116396093783
0.8419729914182039
0.15914977516924278
0.8016901391363478
0.20316331340653737
0.9068481371454671
0.904642437134101
0.9038056636329156
-0.004545641591662861
0.9414614715532231
0.3587310247877664
0.21541453490901838
1.0004428485743584
0.16795573961489502
0.5581063735174968
0.7154947862951556
0.6114995224999242
0.6411269042053215
0.04316916637000742
0.9526964859391938
0.9521847496396669
0.054626806939096134
0.6962949030025652
-0.006147979247705087
1.0057343030464156
1.0036254041535855
0.03686127459923449
0.040558265093627255
0.8956781091273359
0.25192016575754467
0.9487412283139202
0.45018860987358206
0.8605228852442313
-0.00039829752909424486
0.6446856254498815
0.3553117450820099
0.36502748711788924
1.0010985983810967
-0.0020697531765018827
0.5573404211255486
-0.007555557698454934
0.4132158639401539
0.0673897921762321
-0.0011414189096193772
0.2332682172959459
0.6273919977754072
0.7203127346119831
0.7849521257352005
0.950144370008863
0.04742459914494449
0.23986641278873355
0.18335505658493526
0.7698408314581727
1.0043929534310831
0.23313122720275498
0.06765185511233932
0.18369558229262778
0.05285152508812785
0.9305234842768807
0.04613075438531594
0.2093745838041238
0.7887338628262142
0.7931227215452049
0.8010784464956957
0.4076804686717607
1.005876691537578
0.36970567771927776
0.9182689275128365
-0.0011799979664052318
0.05023085954647325
0.03909072760515025
0.5961632133206719
0.06955612328447046
0.0020976401819208868
0.059880428327526665
0.08157787707151845
0.41163530888542754
0.5631475558042414
0.02950171951873114
0.19199458875272152
-0.0018223375177207745
1.0000541803309964
0.9189228505700042
0.43380791921029366
0.5719081604174362
0.6274738008587761
0.939326681176851
0.05100802119650206
0.04981987419309867
0.9982432676065731
0.030180818657621858
0.5060818751964057
0.3235203576992587
0.11870304674813832
-0.0007765872631181905
0.7917914614701798
0.949450956525189
0.14356395716322562
0.12533344570449162
0.854557009383732
1.0017233074269174
0.044714236932965834
0.9440893547661685
0.9439642693625692
0.44387195801880003
0.44291385382759957
1.0007616609346366
0.21417714550351427
0.33467700277342044
0.374766134322102
0.0002611053857582124
0.9682405018984089
0.9689467628154452
0.2445553102107671
0.5990415858137396
0.8343438148952306
0.8359304192740157
0.18889982230772037
0.8309454594465774
0.23060503652563083
0.8832657539881763
0.8822906567543684
0.6197069593989851
0.8947658836072621
0.6200133012387397
0.05097166958642494
0.9505926231479653
0.39129641133191084
0.6235707812112664
0.3768980876420126
-0.007106787014446843
0.3126967583368441
0.05683114524148232
-0.0004324488213737119
0.5690171958202549
0.1151092887947519
0.22028956293208143
0.08609438301395426
0.8003117491243715
0.8745011647721631
0.9760288197744936
0.5847958634675396
0.003257408992890265
0.4038144760858885
0.0776999863842679
0.9991904048616481
1.000172658187232
-0.0009086520751434131
0.05792883083746417
0.9466655667669134
0.0004144848396759465
-0.00405840909127307
0.23336190005616278
0.7684667513085778
0.436864714338441
1.0027609624425964
0.22167406148422972
0.8205289581466836
0.19653377086614035
0.8093202988570259
0.1905194592981365
0.9786931539220068
0.001617334795441735
0.407162387758722
1.0008862059876906
0.9587283708223922
0.04276160320501777

SCALARS Omega double
LOOKUP_TABLE default
-7.676490838515914
-1.1810233421608543
8.585286247390155
15.920192473829445
36.510913719726666
-6.47775473272985
2.4232700218816823
-4.464704283349577
-0.4278243934547307
1.9235639425079056
0.048304972882319046
-0.6367116219070031
0.4852592374031255
1.1462763952875366
0.23187799409313048
0.8262740272235661
0.5476142972112112
0.796189494535815
1.5583270414315644
-0.08696655378240285
1.4180491421700285
1.246277224302352
-0.40959040071345265
0.49216645902159534
1.067599463971069
1.038974861199952
0.7637312556586252
0.2400905380163966
0.4607157560679168
1.419081136686673
1.1070937012405169
0.16111783128610277
1.3296982460419244
0.8623425860345247
0.4159589189863604
1.1149442007077666
0.7545296343011926
0.37870307666791775
1.3065628244223062
0.6777234408137391
1.3713078556020042
0.6892380482204907
0.4353958699438725
0.3503796433684842
0.9353892941898587
0.7192941466412927
2.105640438308167
0.46189342317444054
-0.4557139134967171
2.1462585882516954
0.8629110728249185
1.8519240417540466
9.575034195883154
-7.864538649491118
0.5802077781413458
2.892138315777668
1.656138223834238
-0.10674105867098933
-1.1838310464672113
-2.671257687251191
-3.323359540831808
-1.533359658619348
-0.25174237271705324
-0.6466508898462614
-1.0511570767128577
-0.14158181932907724
-0.7012686411279145
-0.38470026698955073
-1.0658859250064245
-0.8179777074042325
-0.31119179292919513
-0.7192237989469009
-0.45842569023122665
0.0962395505461651
-1.7614842383766502
-0.6495459337907312
0.3870676960775144
-1.4868320505031882
-0.5980755370289054
-0.30334618603362673
-1.1012998995757168
-0.8051991416730119
-0.4284255969830963
-1.0996863202272054
-0.8837939067524331
-1.4102003104981797
-0.17646006743565246
-0.5623044076677456
-0.9662700590778095
-1.079102640423626
-0.7447958087249098
0.6831848922263098
-1.3957455223007156
-1.2257447340163363
0.20218302962001747
-0.8515122553588698
-1.1192132320004562
-0.1623958215121005
-0.5574180225481561
-1.5260953192409161
-1.5307596365236393
-0.39308271425533
-1.9060148450810193
-0.48588448783506943
-2.0720798979478263
-0.49875535681824057
-0.13993465976226266
-2.0694768821630256
-1.9109474505385307
-0.8190300452919749
0.7511262838100462
-4.592711144640401
2.645810321258142
0.31204326954582956
-0.02539997289804454
-0.8569631115870567
1.6497900055703303
-5.889256535464939
-2.340393100644882
-42.60834664483101
-0.5123641203971135
0.5160254554716754
0.10212365625534503
-0.06545875400986817
-0.27799402670093276
-0.2885850354301162
0.10853239629228437
-0.3761306780287241
-2.0302409592806203
3.12877340265647
2.878189649182412
-2.973881406865106
-2.982006329789114
-2.7453914518673384
-2.852828045255121
-2.045473300800667
3.170476756282423
3.2132208996568594
3.1805415275653766
3.17953449030408
2.3172135987222613
3.2147649497648865
-3.602861036987343
3.998048930114257
-2.586074393450711
-4.18745164743123
-4.167008526792062
5.215781112322492
4.355961152592608
4.177760085714368
-4.84389482154078
-4.456188163656521
-4.341951728397692
-4.100512103043749
4.3394634027892005
4.156409261689718
4.386867063231585
1.9688204865213426
4.661339605673648
-3.9676638015965273
-1.7028445757356834
-4.755655245343205
-5.080408775775043
-1.4216898374018534
-0.2204019364447687
0.7672651098145159
-6.279499810582742
-5.4427449735093205
5.051708261563261
-5.152224169051528
5.258918391078925
5.081760603956764
-1.2640904096015975
-4.8994340914908285
0.22123703889154908
0.13506932668166563
0.06503972194014328
-0.17005669774583196
0.04883683222399177
-0.15137325316061492
0.0650272375079456
-0.07277816922846138
0.14941655809462023
0.1958469443357826
0.19733703634130162
-5.596513615682095
5.374104979395213
7.331852776202938
-5.743180079873682
5.830311422691556
5.867270911635293
6.138784553420901
-5.31008605345969
5.6410784437598664
5.241320194064306
-5.576685906202914
-5.447621560429806
-6.384452098226483
6.507351232493375
5.601499327301906
5.726315986942631
0.40532918471482166
13.251648979664074
5.600687502627819
-5.536882509145088
2.4944255884679216
2.2674469200248417
-2.7336487054473193
-5.439344092490531
-2.3410339370929387
-5.892154858578642
2.7095745003792637
-2.6489701091519002
-2.600084134863988
-1.8809019623386427
2.3205652292891426
2.424036197449265
-5.557062592107725
0.08635069427987101
6.057668241370131
2.080745276913049
-2.5944497151772907
-1.9934260097252985
2.6284606709308735
5.6303565925768675
-2.0420246554377104
-1.2681421432779165
0.7605238162052746
2.7167030896285946
-6.110414351796928
-1.866329088274809
-6.132806851853779
-6.038594358649854
-6.240864481586045
-2.203568521183396
-6.083280685291925
-4.518055777630595
2.487829712990924
-2.391458936827681
-2.658172226073961
2.564295268204193
2.4930251768241103
-2.4685134232489205
-1.550258607791287
1.7657778475464738
1.859443665578894
1.8256386030304834
2.212429833298584
3.1110726635572363
5.7020220422055425
-6.4479636380380105
-7.401270497819961
-6.641407969949512
-8.337759254410475
6.222107223224253
6.738413860374701
-1.8087356054477484
6.6408673883661535
-0.9136126183446716
-1.006941366404795
6.5336298158360115
-5.274490030222536
7.883065416279794
6.006219695738422
-6.026640159401685
5.58075168039588
-2.4273469478556398
5.5707374636456874
6.920602313708344
-2.4763717496692514
-8.263267595593264
-10.849629946176664
-8.805215800043339
6.474256430792017
5.738478224443533
-1.0357399185386273
7.100498745541108
-2.167825888748836
-7.712590916868488
2.2348293482971604
-2.133299486353506
-2.0864473471314446
23.702501013289307
-6.214820824175534
2.241609576777308
-3.471913959634012
3.7176798972302634
3.518292508725548
3.522102551532123
7.451492822702436
1.626738136637088
-8.213703396743306
8.225131289991824
6.790069247456674
-1.4502505714475014
-1.8618580655162438
-3.5482457662633275
6.684521344635948
-6.594621135556595
4.189451728437407
-2.208606867679446
-3.7599758395099148
-0.44600924188969043
-6.197196085788229
3.282487250513777
7.426850320631397
5.573434854056714
-4.36026034629796
-3.420754138982876
-9.953566638994356
-0.5916261276857957
-7.888544284865172
-1.4071380043878634
-3.3943294686531216
-8.537378953272801
-7.7300961826984205
-0.9171246475076219
-0.7433325662367624
-0.8531003909012603
0.776760474064649
1.028175705881891
-7.087604523482627
1.5054763297715554
-9.01228141452342
2.0679490780721994
-4.268377957508384
-4.132634640533558
9.350595648158166
3.413336147632485
-3.113544144118565
3.3900662017789496
-3.5014922451560477
-3.285362811521477
3.4782090866910904
6.7070516352972325
-6.2952288900723525
-4.299280589571036
4.156976313011963
-4.184193557414615
-1.2839062411374442
1.2320417585404182
6.290248473431721
-10.001723460257322
-0.7855524889391388
-0.7307153272556475
1.14406377246757
1.0607094313106784
0.970000094894519
-6.70218512598752
-8.023518277147028
-3.908895843502386
4.255554764885534
4.154862843762778
0.9931317866624294
-0.9247424134532631
-0.7827581406914159
-8.579479227948175
1.0032794482709635
4.409635074097079
-4.195468590019995
9.350135798913433
-3.3843956945443203
-0.4402348500809349
0.20501394235347814
-0.9826902646444542
4.02882477239252
0.24152015207212868
8.3537856745717
-0.46818543331232604
6.464262596447703
6.0700838936940675
4.547286986164707
5.4991358188617685
2.5229752137492683
-7.387875455678433
-1.288639997465225
2.1811533619998342
0.8586005037356085
1.9277196849237106
-2.3504467123043957
-4.638191275473301
-10.004273137956636
-0.6257545291588673
0.7356124931724988
3.733372480177503
0.7412089651970929
-0.5698752306260217
-0.5291390772975134
5.486294421298706
4.90408501293612
-4.120974146193532
-4.27172964466049