# vtk DataFile Version 1.0
2D Simulation C++
ASCII
DATASET UNSTRUCTURED_GRID
FIELD FieldData 1
NODES 1 2 int
715 1308

POINTS 715 double
0.0 0.0 0.0
5.0 0.0 0.0
5.0 1.0 0.0
0.0 1.0 0.0
0.10000000149011612 1.0 0.0
0.20000000298023224 1.0 0.0
0.30000001192092896 1.0 0.0
0.4000000059604645 1.0 0.0
0.5 1.0 0.0
0.6000000238418579 1.0 0.0
0.699999988079071 1.0 0.0
0.800000011920929 1.0 0.0
0.8999999761581421 1.0 0.0
1.0 1.0 0.0
1.100000023841858 1.0 0.0
1.2000000476837158 1.0 0.0
1.2999999523162842 1.0 0.0
1.399999976158142 1.0 0.0
1.5 1.0 0.0
1.600000023841858 1.0 0.0
1.7000000476837158 1.0 0.0
1.7999999523162842 1.0 0.0
1.899999976158142 1.0 0.0
2.0 1.0 0.0
2.0999999046325684 1.0 0.0
2.200000047683716 1.0 0.0
2.299999952316284 1.0 0.0
2.4000000953674316 1.0 0.0
2.5 1.0 0.0
2.5999999046325684 1.0 0.0
2.700000047683716 1.0 0.0
2.799999952316284 1.0 0.0
2.9000000953674316 1.0 0.0
3.0 1.0 0.0
3.0999999046325684 1.0 0.0
3.200000047683716 1.0 0.0
3.299999952316284 1.0 0.0
3.4000000953674316 1.0 0.0
3.5 1.0 0.0
3.5999999046325684 1.0 0.0
3.700000047683716 1.0 0.0
3.799999952316284 1.0 0.0
3.9000000953674316 1.0 0.0
4.0 1.0 0.0
4.099999904632568 1.0 0.0
4.199999809265137 1.0 0.0
4.300000190734863 1.0 0.0
4.400000095367432 1.0 0.0
4.5 1.0 0.0
4.599999904632568 1.0 0.0
4.699999809265137 1.0 0.0
4.800000190734863 1.0 0.0
4.900000095367432 1.0 0.0
5.0 0.8999999761581421 0.0
5.0 0.800000011920929 0.0
5.0 0.699999988079071 0.0
5.0 0.6000000238418579 0.0
5.0 0.5 0.0
5.0 0.4000000059604645 0.0
5.0 0.30000001192092896 0.0
5.0 0.20000000298023224 0.0
5.0 0.10000000149011612 0.0
4.900000095367432 0.0 0.0
4.800000190734863 0.0 0.0
4.699999809265137 0.0 0.0
4.599999904632568 0.0 0.0
4.5 0.0 0.0
4.400000095367432 0.0 0.0
4.300000190734863 0.0 0.0
4.199999809265137 0.0 0.0
4.099999904632568 0.0 0.0
4.0 0.0 0.0
3.9000000953674316 0.0 0.0
3.799999952316284 0.0 0.0
3.700000047683716 0.0 0.0
3.5999999046325684 0.0 0.0
3.5 0.0 0.0
3.4000000953674316 0.0 0.0
3.299999952316284 0.0 0.0
3.200000047683716 0.0 0.0
3.0999999046325684 0.0 0.0
3.0 0.0 0.0
2.9000000953674316 0.0 0.0
2.799999952316284 0.0 0.0
2.700000047683716 0.0 0.0
2.5999999046325684 0.0 0.0
2.5 0.0 0.0
2.4000000953674316 0.0 0.0
2.299999952316284 0.0 0.0
2.200000047683716 0.0 0.0
2.0999999046325684 0.0 0.0
2.0 0.0 0.0
1.899999976158142 0.0 0.0
1.7999999523162842 0.0 0.0
1.7000000476837158 0.0 0.0
1.600000023841858 0.0 0.0
1.5 0.0 0.0
1.399999976158142 0.0 0.0
1.2999999523162842 0.0 0.0
1.2000000476837158 0.0 0.0
1.100000023841858 0.0 0.0
1.0 0.0 0.0
0.8999999761581421 0.0 0.0
0.800000011920929 0.0 0.0
0.699999988079071 0.0 0.0
0.6000000238418579 0.0 0.0
0.5 0.0 0.0
0.4000000059604645 0.0 0.0
0.30000001192092896 0.0 0.0
0.20000000298023224 0.0 0.0
0.10000000149011612 0.0 0.0
0.0 0.10000000149011612 0.0
0.0 0.20000000298023224 0.0
0.0 0.30000001192092896 0.0
0.0 0.4000000059604645 0.0
0.0 0.5 0.0
0.0 0.6000000238418579 0.0
0.0 0.699999988079071 0.0
0.0 0.800000011920929 0.0
0.0 0.8999999761581421 0.0
0.7496038675308228 0.5164291858673096 0.0
1.3451675176620483 0.5190238952636719 0.0
1.9462687969207764 0.4963642954826355 0.0
4.456614971160889 0.5060901641845703 0.0
3.864220380783081 0.4866538345813751 0.0
3.249823808670044 0.482722669839859 0.0
2.6500000953674316 0.5 0.0
0.3810288906097412 0.399004191160202 0.0
2.308779239654541 0.3797946870326996 0.0
1.0499999523162842 0.6625000238418579 0.0
1.644740104675293 0.6598879098892212 0.0
4.150000095367432 0.3375000059604645 0.0
3.555316209793091 0.3343118131160736 0.0
2.9446933269500732 0.3401789665222168 0.0
1.6342840194702148 0.3290160894393921 0.0
1.0591840744018555 0.33908534049987793 0.0
2.9654481410980225 0.6753292679786682 0.0
3.5534629821777344 0.6835107207298279 0.0
4.153462886810303 0.6835107207298279 0.0
2.2139804363250732 0.6805098056793213 0.0
0.4914395809173584 0.6739721894264221 0.0
4.691666603088379 0.6916666626930237 0.0
4.691666603088379 0.3083333373069763 0.0
2.4872219562530518 0.7236665487289429 0.0
0.6240421533584595 0.2677222192287445 0.0
2.0697431564331055 0.2657754421234131 0.0
2.5389034748077393 0.26082900166511536 0.0
0.8147311806678772 0.7450684309005737 0.0
1.2897310256958008 0.743314266204834 0.0
1.8853894472122192 0.7450258731842041 0.0
4.382374286651611 0.23655959963798523 0.0
3.910269021987915 0.25668570399284363 0.0
3.1838724613189697 0.25397706031799316 0.0
1.398239254951477 0.2614254057407379 0.0
3.201760768890381 0.7385746240615845 0.0
3.8017609119415283 0.7385746240615845 0.0
4.39177942276001 0.7466779351234436 0.0
0.25301694869995117 0.7458874583244324 0.0
2.7258167266845703 0.7600342631340027 0.0
0.84163498878479 0.2263137847185135 0.0
0.22429518401622772 0.22429518401622772 0.0
2.7605957984924316 0.22504857182502747 0.0
1.8330284357070923 0.2150011658668518 0.0
0.2192869633436203 0.5323538780212402 0.0
4.7908525466918945 0.5038931369781494 0.0
2.466000556945801 0.5376454591751099 0.0
3.7061264514923096 0.17723728716373444 0.0
3.3929696083068848 0.20266839861869812 0.0
1.4905184507369995 0.7937026619911194 0.0
1.2104878425598145 0.20361483097076416 0.0
3.9895122051239014 0.7963851690292358 0.0
3.389512300491333 0.7963851690292358 0.0
0.5652223825454712 0.5070380568504333 0.0
0.44509074091911316 0.19716571271419525 0.0
2.1318352222442627 0.5042122602462769 0.0
1.548349142074585 0.4954715371131897 0.0
3.050636053085327 0.5004673004150391 0.0
0.9511125087738037 0.498258113861084 0.0
3.651650905609131 0.5045284628868103 0.0
4.248488903045654 0.4980509281158447 0.0
1.1537858247756958 0.49593159556388855 0.0
4.050199031829834 0.49993085861206055 0.0
3.464722156524658 0.509624183177948 0.0
1.749653697013855 0.5001751780509949 0.0
2.851828098297119 0.5057260394096375 0.0
2.359710216522217 0.1888567954301834 0.0
2.0499017238616943 0.8199846148490906 0.0
0.6430503129959106 0.8181284070014954 0.0
4.560274600982666 0.1724673956632614 0.0
4.55863094329834 0.8299665451049805 0.0
2.321284055709839 0.8242537379264832 0.0
4.815218925476074 0.8345447778701782 0.0
4.837246894836426 0.16590170562267303 0.0
0.9682294130325317 0.8331464529037476 0.0
1.730908751487732 0.827606201171875 0.0
4.220076560974121 0.17516615986824036 0.0
3.02066969871521 0.18326662480831146 0.0
1.5634372234344482 0.17044226825237274 0.0
3.035303831100464 0.8294908404350281 0.0
3.627507209777832 0.8360387086868286 0.0
4.2312469482421875 0.8315803408622742 0.0
4.618130683898926 0.5361976027488708 0.0
0.40311703085899353 0.8369210362434387 0.0
1.1473191976547241 0.8458209037780762 0.0
4.052680969238281 0.15417908132076263 0.0
2.020958423614502 0.6394158005714417 0.0
0.662188708782196 0.6447370648384094 0.0
4.5115838050842285 0.3538685142993927 0.0
1.0221220254898071 0.15309639275074005 0.0
0.3837882876396179 0.5515117049217224 0.0
3.548090934753418 0.15800617635250092 0.0
1.4348299503326416 0.6465393304824829 0.0
3.765170097351074 0.3534606993198395 0.0
3.3348300457000732 0.3534606993198395 0.0
1.2546738386154175 0.36384353041648865 0.0
3.945326089859009 0.636156439781189 0.0
3.3412928581237793 0.637225866317749 0.0
2.1904795169830322 0.17066854238510132 0.0
0.16392111778259277 0.38331863284111023 0.0
2.87723445892334 0.8265392184257507 0.0
4.8459792137146 0.6499902606010437 0.0
4.845625400543213 0.34837812185287476 0.0
2.771622896194458 0.38129922747612 0.0
4.5222978591918945 0.6578375697135925 0.0
2.604464530944824 0.8240283727645874 0.0
1.8544400930404663 0.3751189708709717 0.0
0.8566747903823853 0.38255012035369873 0.0
2.2932615280151367 0.5369129776954651 0.0
2.620572805404663 0.6496497392654419 0.0
0.7172287106513977 0.1490369737148285 0.0
0.1410960853099823 0.8303417563438416 0.0
1.7142322063446045 0.142862930893898 0.0
2.6314175128936768 0.14492936432361603 0.0
1.9832650423049927 0.1408119648694992 0.0
2.445650577545166 0.370038241147995 0.0
2.885042667388916 0.1455758661031723 0.0
0.13937503099441528 0.6546638011932373 0.0
0.9110832810401917 0.6349053978919983 0.0
3.088575839996338 0.3613528311252594 0.0
4.296638011932373 0.3563385307788849 0.0
1.1930090188980103 0.6355591416358948 0.0
1.788455843925476 0.6387236714363098 0.0
4.006990909576416 0.3644408583641052 0.0
1.4459187984466553 0.39242905378341675 0.0
4.354081153869629 0.6075709462165833 0.0
3.7540812492370605 0.6075709462165833 0.0
3.1591691970825195 0.6018876433372498 0.0
2.7615907192230225 0.6205627918243408 0.0
2.36276912689209 0.6735464930534363 0.0
1.3681535720825195 0.8630191683769226 0.0
3.8318464756011963 0.1369808316230774 0.0
3.275517463684082 0.10712132602930069 0.0
0.5630941987037659 0.12814241647720337 0.0
1.3237862586975098 0.10638008266687393 0.0
3.2733232975006104 0.8705052733421326 0.0
3.8733232021331787 0.8705052733421326 0.0
2.0396511554718018 0.38928428292274475 0.0
2.2168734073638916 0.8508136868476868 0.0
0.5163488388061523 0.3409615159034729 0.0
0.6547463536262512 0.3955095112323761 0.0
1.9480526447296143 0.8710126876831055 0.0
4.689375877380371 0.13700176775455475 0.0
4.698264122009277 0.8675068616867065 0.0
0.7578787803649902 0.8698469996452332 0.0
2.479548454284668 0.13692785799503326 0.0
2.4562506675720215 0.8735422492027283 0.0
2.171211004257202 0.3573116958141327 0.0
3.5117530822753906 0.853193998336792 0.0
4.107914924621582 0.8658969402313232 0.0
2.640726327896118 0.354434996843338 0.0
4.346996307373047 0.1279495507478714 0.0
0.3128283619880676 0.11246757209300995 0.0
0.136248379945755 0.12152919173240662 0.0
4.453908443450928 0.8629162907600403 0.0
1.6064813137054443 0.8679171800613403 0.0
0.3380795121192932 0.6626779437065125 0.0
0.5102446675300598 0.875635027885437 0.0
0.7425088882446289 0.2989330589771271 0.0
3.1349449157714844 0.10448489338159561 0.0
1.3287748098373413 0.6181886196136475 0.0
3.871795415878296 0.38215625286102295 0.0
3.229135036468506 0.3810797333717346 0.0
0.28971707820892334 0.8759857416152954 0.0
0.9214505553245544 0.11992674320936203 0.0
1.9219478368759155 0.6237660050392151 0.0
1.530794620513916 0.29603153467178345 0.0
3.072223663330078 0.7044162750244141 0.0
3.6722235679626465 0.7044162750244141 0.0
[...]
POINT_DATA 715
SCALARS Psi double
LOOKUP_TABLE default
0.0
0.0
1.0
1.0
1.0
1.0
1.0
1.0
1.0
1.0
1.0
1.0
1.0
1.0
1.0
1.0
1.0
1.0
1.0
1.0
1.0
1.0
1.0
1.0
1.0
1.0
1.0
1.0
1.0
1.0
1.0
1.0
1.0
1.0
1.0
1.0
1.0
1.0
1.0
1.0
1.0
1.0
1.0
1.0
1.0
1.0
1.0
1.0
1.0
1.0
1.0
1.0
1.0
0.9112285781465961
0.8417727687243897
0.7351915111314871
0.6138138574104136
0.4845073312013755
0.3531181646158201
0.22499164729632343
0.10873725089525021
0.031228278730541122
0.0
0.0
0.0
0.0
0.0
0.0
0.0
0.0
0.0
0.0
0.0
0.0
0.0
0.0
0.0
0.0
0.0
0.0
0.0
0.0
0.0
0.0
0.0
0.0
0.0
0.0
0.0
0.0
0.0
0.0
0.0
0.0
0.0
0.0
0.0
0.0
0.0
0.0
0.0
0.0
0.0
0.0
-0.0
0.0
0.0
0.0
0.0
0.0
0.0
0.027522181734270287
0.10968498344599958
0.21418371636108816
0.31952166317876085
0.42454608727968746
0.5250963939585056
0.6170679075090966
0.690754494738627
0.6485731963361065
0.5215230551303651
0.523151865894709
0.49627770510719565
0.5009997060592627
0.4742005595436065
0.47396600213105183
0.5051401613743507
0.3380519424441273
0.3368111877919791
0.7197309728444626
0.7172313084072961
0.2705384127626456
0.26215774547775395
0.2844952471293562
0.26344697791008637
0.27858358534040745
0.7510604777511538
0.7429120271543765
0.7453872074592519
0.7533104459475799
0.7399139508919741
0.7480274825781386
0.2314461979407684
0.8109996135165305
0.18315157913908942
0.1818925199092209
0.1747141413750274
0.8314748028305933
0.8317560607554834
0.8353003121267739
0.1287914604419529
0.1622868203327198
0.15979818354887024
0.16698612720388495
0.8288622369332923
0.821823189251215
0.8353685296615844
0.7957554112180014
0.8667743969580447
0.13646749502123737
0.11443707585899929
0.12699986333984772
0.112207761528514
0.48186327851534955
0.4921361582709414
0.5558416589951766
0.05450503649087927
0.0847171409509779
0.8951704648062919
0.08639092023214445
0.893345865014648
0.8920092277381476
0.5023508971926286
0.08151306179964557
0.508496148672804
0.49134468483281685
0.5039909015417472
0.4966989783086453
0.4977599851913809
0.4907042636847046
0.4919382030431303
0.4931259136576533
0.5060583034062623
0.4995909255641394
0.5139372523320292
0.0763076402466397
0.9334224234869719
0.935943319881534
0.058411851886341015
0.9383518218140119
0.9431831594126813
0.9196775619192092
0.053257540094063534
0.9384239088338638
0.9368819667092826
0.05761114286179632
0.07524428337752087
0.057778116964666545
0.9528803123781183
0.9427158148233752
0.9402399523932204
0.5397320041331796
0.9728606634147227
0.9568147992382818
0.04126430002244438
0.6936894131570717
0.6997809440063084
0.29192655320596844
0.04422985260997921
0.5431811651057793
0.03769550463311229
0.6985721647581151
0.2893838001580402
0.293105721392359
0.3085763013626825
0.6795003778303964
0.683522731809357
0.06033480262036495
0.3038906178373289
0.9535655915196218
0.6824237540570959
0.28421291248394576
0.3412853878513841
0.709632130351996
0.9435203205402557
0.3290446379067105
0.3408599387285068
0.554265160694577
0.7120535425558921
0.048331756196619426
0.8315271351068141
0.03596291643465178
0.03390769546446824
0.03395383392346063
0.32398406425534115
0.03647496371150789
0.5999304757803139
0.6824051682358587
0.3105400412784083
0.2952274570654289
0.6838491190576457
0.6901338239840382
0.3078969322553642
0.348716793260262
0.6420468929982996
0.6402605190533812
0.6417994785028357
0.6738570354735572
0.7431871183197216
0.9694148960808637
0.02462609876617418
-0.00519320351688306
0.024568582627523324
-0.004886214761636324
0.9738255966229402
0.9753648699702829
0.3499638066177566
0.9702625878832373
0.272475251496109
0.3543957230345329
0.9807459028953492
0.02991867056295246
0.9697383252737563
0.9751436418622792
0.028019605772550676
0.9799376497100217
0.3060529313634265
0.9536866957238752
0.9684845933624988
0.3033059111135964
0.007747541333000066
0.002652110613698037
0.021010733169849596
0.9728385293364917
0.9707225571582047
0.6964461186679338
0.9938170165540026
0.22848891404636498
-0.0028864537332036456
0.6599732416456352
0.33098545844725547
0.333977579766332
1.0197240553770757
0.02684582344982608
0.670865722256649
0.216959950106182
0.7884631574302684
0.7728434429551853
0.7759741377436804
1.0196283346012833
0.6521806851499424
0.004038236360408382
0.9937780577831737
0.9942713442553316
0.1656875874522503
0.3650420447973317
0.22246769300509756
0.9980211679317521
0.002894887580180791
0.8304007871024321
0.33197638725354084
0.1526771211866294
0.3555177821662301
0.013578061396176797
0.16525500628332485
0.9912988646822211
0.9831422847005941
0.15989191739449282
0.2294790944965733
-0.009674790126839531
0.4487946215486223
-0.011894760469696525
0.41809071096922723
0.23353963708251552
-0.00898669162701216
-0.006576549797530782
0.42898878367743476
0.44011504034856924
0.4271504710498365
0.5622628548132094
0.5655267431522821
0.0011860998126384265
0.5495832548091634
0.00035980557489260324
0.6592522219345704
0.16479920917185065
0.6174949686399335
1.005529830167969
0.7614844118204168
0.20095315861047663
0.7554524094082727
0.22301656357239813
0.23907851117400145
0.7645445620008066
1.0030518950267973
-0.004038477070904784
0.17090944625906684
0.8179385394357284
0.17157537907149145
0.34669771731916765
0.6028434503210195
0.7891049246046138
0.1634126700260402
0.41780543837442136
0.41829273539920336
0.5899261833076854
0.5760115378212771
0.576535496743783
0.028240354638957448
0.6686141928383207
0.1671123461260826
0.8217786082580458
0.8187337293917812
0.5650778987080599
0.4255415654028046
0.43613926977396605
-0.001694408467156686
0.5671831532641722
0.8157794457315644
0.17660077150297426
1.0150762736863965
0.23326688113589808
0.5644293495904197
0.6425294990764672
0.4308941319235346
0.8210958956601132
0.5585254755787957
0.9993375394050199
0.45660872591898
0.9824234055074076
0.9804702595797801
0.854007428224871
0.8234749704097292
0.951923350797215
0.013094670499958536
0.4411440986464663
0.6725230178892241
0.5586237410594571
0.6479384933192157
0.40257802931497516
0.14104711524863295
-0.005652794823658126
0.4557894434174421
0.2199542776710326
0.7972148076683255
0.5412755581969139
0.45028721214042344
0.4539876932757113
0.8147629904659505
0.8221539612584993
0.17694794459147
0.16426332970962973
0.825614619223997
0.42310160512498285
1.0020838231880853
0.16523971307145915
0.866203324436862
0.8711837148371144
0.38160727326904675
0.8886693515823801
1.012427344509824
0.1575324453461744
0.19279102442613993
0.648462424878332
0.3462519294988469
0.6432986605986595
0.6558431736282995
0.11560014509590634
0.6296767563371386
0.36080373996391224
0.3609462896187828
0.003004089926366661
0.47650454219008753
0.28920674032982824
0.6978426422299178
0.7226491076525278
0.3625228148140933
0.8365997227681123
0.6333193166200544
0.6334293128773889
0.616722523229115
0.00759754748548881
0.010790752947612552
0.18414165064263896
0.7839002023885993
-0.011671879494613504
0.8928774508425481
0.8862570729696181
0.8106938665850068
-0.007730569901744781
-0.011994208210242479
0.2079922345019462
0.36592207114512937
-0.006960409296426004
1.0064207457923988
0.3560467237357358
0.8551299732015212
1.0071466653377128
0.8321506161589799
0.15862968191174454
1.0170416204602972
-0.007640114749353339
0.1333757087902325
0.9931456434582682
-0.0036965135141644487
0.3347177787375127
-0.002027791443111299
0.6639622170782927
0.002417963166134046
1.0069737740464535
1.010011353917502
0.14453309772009354
0.5076852092758798
0.18908270797586432
0.9996274627555816
0.8466492624711282
1.0003844445014611
0.3694346514538574
0.9996573491765058
1.0126409140983963
0.15892658563446382
0.11761913781966084
-0.005112040453199186
0.32551760183229467
0.6192555218726506
0.5880063112657823
0.41518231313949716
0.550537796848275
1.0113980743113007
0.2618695051269559
0.5640785298136167
1.0054849396028955
-0.004161483365776106
-0.006975592411471193
0.22257501738438853
0.42495493196159345
0.5607660608675832
-0.0033460052156939887
0.8928643028052595
1.0181107897865402
0.8760211181787112
0.1201484810763276
0.8825522268607151
0.871575076934815
0.6078035458892653
0.11565897532813446
0.8624395777780844
-0.007873340400791753
0.31271394875555325
0.000245614224282837
0.9018253689476698
0.09536974926922381
-0.006885999606790924
0.5686912673321893
0.5559958968669475
1.0133726979145836
1.0232665506433634
1.0085389660482391
-0.0008266927981531133
0.4408147040630494
0.6367723652369112
0.6417288947432584
0.6430368719941872
0.3536342369023127
0.34983233714076634
0.3589807332387774
0.91885852011979
1.0381107671241818
0.9964609779092453
0.9913500188921373
0.9507021345309004
0.680716806134448
0.7139909034181419
-0.009002920490911136
0.08140648581566326
0.7479294742851141
0.6769591691796734
0.2856209510729006
0.8786685645300385
0.1150502764163729
0.10311022226284339
0.6800820743200132
0.5970377100888097
0.4380285826627055
0.9978380730088763
1.0059159564224127
0.7381876480994555
0.12537177126738205
0.904868445548749
0.2507254468145718
0.9348680015626486
0.07085127609637337
1.0045914394238307
0.0019337704542334384
0.3870343046946023
0.5983077249059678
0.3832987883529078
0.8166971030257267
0.06177810762112973
0.5708680688287519
0.3894754619228173
0.7912909825164725
-0.004845230187300677
-0.011314780532541646
0.19406638028560916
0.21683591391969084
0.07605662725553787
0.1380849628176031
0.9108719027684653
0.7908035773925249
0.20277348457267652
0.7460648995107227
0.24821746186029645
0.9089998383484298
0.8656289771376311
0.8619587120263572
-0.01545078978190095
0.916992890439128
0.377932749910433
0.2554104383992607
1.0062313480428553
0.20783895896694277
0.5455349193844349
0.6831116568930261
0.5859935374220481
0.6161985020640502
0.056841843173943266
0.9309610299774006
0.9292840928367907
0.08825257540832006
0.7082931978414336
-0.013956232077287491
1.0121204483081407
1.0092441097900904
0.05029569433343934
0.07622342374447887
0.8718209970200983
0.27707005774336785
0.9286511629940302
0.46836961612883715
0.8189787397542193
-0.0008659368239428616
0.607776842032766
0.379354868133729
0.38726864151101237
1.0045368925968239
-0.005376376028355993
0.5723162078561339
-0.01286519062150995
0.41739783439131983
0.08219376617647918
-0.004036474992858106
0.2742240468733906
0.6003985261035039
0.7316526289058596
0.7384762248971961
0.9255849755881314
0.06994468554339403
0.27812821252671543
0.23064152419017325
0.7186122081053133
1.0095182131171287
0.2602230332086953
0.09343459195309664
0.23297746295515054
0.07023634675824118
0.8966711957961514
0.06743424064325065
0.24274922602481763
0.7488546341946047
0.7462423880451607
0.7571105346434468
0.41329497635925133
1.0140745505562727
0.3997580445719359
0.8854814745695888
-0.006048938154663322
0.07081927655018624
0.05236954831890611
0.57792066061481
0.09716983414505441
-0.0002610700328317771
0.06054585459517685
0.08562656694903897
0.42599882403770534
0.555110765199746
0.039735060627795867
0.2314880398393151
-0.0036203026785606674
1.0038770329011824
0.8772759499678275
0.4355324194998128
0.5546796282585
0.6013875072776946
0.9091048849652299
0.07192604419116641
0.06822534579277649
0.9994219222367547
0.04209830186590271
0.522524006626596
0.351878449141463
0.1447472992727703
-0.0058556680277463725
0.7477523482978222
0.9291869133769952
0.182871980212463
0.1626075100110941
0.804866619463572
1.0063736172571518
0.05511284889860546
0.9172235927857983
0.9175484591865029
0.4509380567166992
0.45102359989730906
1.0056943051744667
0.24270582495807172
0.3443659744779982
0.40095869496038583
-0.0036799414906365274
0.9504098096877167
0.9506377824707772
0.25796460854023257
0.5772598975686266
0.788901522991927
0.7889145895453316
0.21683811896721875
0.7889802867307815
0.26948142396076824
0.8393553163831955
0.8430234509257035
0.5879838174452812
0.8602939624622891
0.5921458110923036
0.07154613532757163
0.9226791353631517
0.4106814599682415
0.5883077332362645
0.399556266556956
-0.014328902554091657
0.33287060372254995
0.06774510138443403
-0.004637652996334307
0.5588615052661473
0.14931778175622762
0.24654743944082755
0.08699362976836457
0.751332843715366
0.8340583879425658
0.9626257309974087
0.5679854190870378
0.0035533012870855463
0.4304146530164731
0.09802752304787149
1.000930846970801
1.0027325641415579
-0.006126107175656608
0.0628786998168428
0.928364940842809
-0.0009731567725973002
-0.01112227527271476
0.2756184598166669
0.7163778355132983
0.4546656272522562
1.004851525496705
0.27709418700617666
0.7747511797145211
0.23812717112508114
0.7575906838283397
0.2333748737708959
0.978260196035847
0.0026194320964381982
0.42293229504238194
1.0054911392502468
0.9414570460611222
0.06163948807927296

SCALARS Omega double
LOOKUP_TABLE default
-7.644855634919357
-1.0614708278129483
8.329998970643565
15.47261465466041
35.37669513865186
-6.8053435957295285
2.0747618353177435
-4.489517069955846
-0.3447983189920252
3.481712312322407
-0.045951308204809756
-1.7526565552226616
0.9244388461816325
2.575203484379694
0.20630914576680356
0.7380529371810134
0.5767183659115119
0.8154441687119983
2.7359674988256013
-0.2635654869922452
2.5355550400586253
1.7099561679666628
-1.9657358293269767
0.5893001483501461
1.6717668329196678
1.1474284992344674
0.6601963134973206
-0.6627219495885208
-0.1547234272278325
2.066940247796185
1.3002420290971475
0.18423932305221255
1.5744881047822363
0.7824141420447459
0.32206656375789183
1.531448613720699
1.0002023050482487
0.5750345949877791
2.2149204464415835
1.3255684216228556
1.908850310682865
0.945280388652994
0.4168473666318116
0.7346380930526393
1.4302013975254757
1.287586705038
3.19582362817278
0.0010332164227554908
-1.7398347819854008
3.303228191915307
1.4862492323745262
3.5455687574792347
10.610829694400605
-6.537871453962479
-0.07527729045014074
1.2983551010655323
0.908177620554435
-0.05075751880360792
-0.21444729063833756
-0.8939214395612296
-1.70003437462433
-2.613063294779833
-0.6075036760067042
-2.285967136587462
-1.4742533937239881
0.20539912620419462
-1.547193357690389
-0.3366136572058711
-1.2553563682703817
-1.277509076403779
-0.012376432250493034
-0.8396313127568837
-0.5156520381440869
0.8893282458901202
-2.614674469787319
-0.19666318738948182
1.0787517990527764
-2.522152249380248
-0.8016817749018934
0.8203364200932012
-2.037545286147382
-1.2955832823415978
-0.1891919716341774
-1.1487354914896137
-0.5531336715454543
-1.4922171252826137
1.0095839390195622
-0.004977347266572424
-1.7028622480095488
-1.6792884418444192
-0.782986705648266
1.7194164332870163
-1.9616758787909923
-1.7073548882019813
0.7937359821153565
-1.102884999777169
-1.57111222861886
0.2075194460144562
-0.41390241855389415
-2.038684093836087
-1.5359339300290935
0.36108863856372053
-2.540128756759205
-0.3382743230835042
-2.9505266051187853
-0.15587763671021876
0.4441683429892449
-2.4551459731918945
-1.7786118003124531
-0.6236858349059243
1.2898878904260096
-4.454369518231704
2.7399166730225097
0.3807163405190134
-0.13798741197237227
-0.8446298423577141
1.3418400508279673
-5.999052058978557
-2.279425616000935
-42.35344612624677
-0.0026791656704923013
0.0017675169141599745
-0.0005859184621775765
0.002350356811553293
-0.0014805081538596645
0.001017972438427343
0.0006394153961335967
-0.15710980974940447
-0.026262562245163244
0.005391429731099097
-0.044685727671951454
-0.05321976086823276
0.08483669942296007
0.013642650622796113
0.010300802683486592
-0.048511647054511664
-0.025008355808928386
-0.028630331133224683
-0.03756884946177899
-0.09397433264043847
0.40295947538608784
0.05372990416922151
-0.006964791209838528
0.3478010519637517
-0.30898849922039573
-0.7716890462556094
-0.6080229297087156
0.8431409636027041
1.1471250614727817
0.6672320964909798
-1.465703491448484
-0.6581999666480794
-0.561778596523726
-0.41148181847488935
0.9646126774882667
0.609857456113046
1.152413975591158
1.1844198323079311
1.1267344432804347
-1.4015595458742416
-1.559743354805917
-1.5880141748578995
-1.9751100198230278
-0.631949116885005
-0.025585012133955694
0.004810507579884919
-6.677778353320056
-2.868431426662143
2.459413881397541
-2.7302804224182005
2.523691903638474
2.385895058902534
-0.04458036324140086
-3.4722102287726453
0.002331612391396383
0.0017321816043800418
-0.00039769296706513256
-0.000588288534711592
-0.0025507555721673548
0.0031154095147900313
0.0012633728271931146
-0.00037427242762755125
-0.002220873898532781
0.003988222059173619
0.003981006760306438
-3.75475246337016
4.383176411289321
4.760417963095248
-4.815288492981696
5.3505345420278685
5.538826689308731
4.298268115823233
-5.074074456414204
4.498681548585438
4.808896357785253
-5.311255929777077
-3.232173203142855
-5.924331646904306
7.349099340176606
4.872299780732431
5.149816096192347
0.0017868286811521428
11.580251405101963
6.983025103707617
-6.706825816578612
-0.013684662851846345
0.17153149833860667
0.03698487262641405
-5.627530801373652
-0.383480630414822
-7.024182356902735
0.03526944891332959
0.014725851100092386
0.041852760327507316
0.03348758418328056
-0.041857482493233684
-0.025899984838600842
-4.852446990349219
-0.2514528307188705
5.836260682484464
-0.1205312644019607
0.1663576784608149
-0.00990428709605868
-0.038620013479558624
4.792303692088976
0.004283327834542476
0.00023722164032198478
0.00854236145109526
-0.02173161618130628
-6.28900463229115
-1.2256840844707997
-7.634886901368784
-7.690829850217146
-8.098253249058484
-0.0009626202643662448
-6.6768057081994865
-3.4388490869333648
-0.010127435733563481
-0.005127937143307728
0.004979594778787596
-0.016253488113777265
0.0427718311953045
0.02736029961914031
0.016018892889549715
-0.011783594478269679
-0.0012442036099219107
-0.03187761029736538
-0.0017077304773967148
0.10964721573837931
8.063293905007665
-8.836624387513831
-13.27339115332622
-8.122507046400521
-13.381836941161332
9.073638439970443
9.730494395006902
0.011790261228753604
9.06389506410601
-0.07035874730607525
-0.0176948103642923
9.547117232968464
-7.178808669658954
9.581547352847716
8.46979145086734
-8.22107024646915
8.4352627810516
-0.0013106304211533248
5.887937643150399
8.66868342347781
0.007398283995693895
-11.953154265660286
-12.669103438633638
-9.718226382766966
8.855054155475923
7.7115254202098305
-0.5120507640065625
10.695791407813351
-0.1660712550669469
-14.403418024517809
0.02595672946652207
0.008177530913468435
-0.0037158040109708697
23.343197834866835
-7.721112515949502
0.021983505875297214
-0.16562635028560552
0.25836118578137895
0.029176073826160748
0.12311616321339883
15.908023970783871
0.024282289925372805
-11.809901488897092
12.513440447421967
10.486417425654228
-0.9750901308978775
0.00403869245756358
-0.07335777664301969
12.093873675523902
-11.089936747104623
0.4254306259168098
-0.0036162987283798395
-1.2457565927591454
-0.38013916257856967
-9.572241720386407
3.1571433770050494
12.87298484022761
9.060984515783199
-0.9059546236781099
-0.14384766914125105
-15.458214820194344
-0.007889218878410379
-14.876339621091997
-1.2820503729854724
-0.06118667381829831
-13.698781839411993
-14.085309794347799
-0.0009067145152729587
-0.004203924352678419
-0.0008685561377894505
0.007791365238597925
-0.00015638040882296777
-12.936062076857691
0.4765442229714489
-13.92916122400057
0.009015420600592138
-0.5344019053288361
-2.2753828627148414
14.929547382225065
0.04256179251089367
-0.08753376164772025
0.06059005292615744
0.1991288037477773
-0.13283285911541604
-0.06691830686634043
14.410766716323316
-12.552876455913612
-0.6540336618052311
0.6086450421203329
-0.14868783422101944
0.0020995608863251434
0.004216764191478605
0.8558598284945611
-2.4780307152514722
0.006521149920894042
-0.005467111269605047
-0.0017724840196788557
0.0040007046670227095
0.004944144240951396
-7.388038761430071
-6.963854375122598
-0.45836479304449534
0.5156632360448881
0.3387915221990367
0.013209968111176189
-0.0006193947415663624
-0.00089347322128019
-15.061501773695012
0.00017827376240657917
0.20613048839506665
-0.47357043529794096
15.331466668157244
-0.058799706149633625
-0.00441407481022871
0.018319471862705484
-0.008481706054223898
0.5729878761173843
0.0011490559856182057
13.578718750957131
0.00037204100352838444
9.753673923746927
8.8644095904823
1.2118544572718386
0.8144687641804708
5.757877625542004
-11.931700421949587
-0.11641342684625171
-0.0006383895309922965
0.003089311862731836
-0.005912299575780024