# vtk DataFile Version 1.0
2D Simulation C++
ASCII
DATASET UNSTRUCTURED_GRID
FIELD FieldData 1
NODES 1 2 int
715 1308

POINTS 715 double
0.0 0.0 0.0
5.0 0.0 0.0
5.0 1.0 0.0
0.0 1.0 0.0
0.10000000149011612 1.0 0.0
0.20000000298023224 1.0 0.0
0.30000001192092896 1.0 0.0
0.4000000059604645 1.0 0.0
0.5 1.0 0.0
0.6000000238418579 1.0 0.0
0.699999988079071 1.0 0.0
0.800000011920929 1.0 0.0
0.8999999761581421 1.0 0.0
1.0 1.0 0.0
1.100000023841858 1.0 0.0
1.2000000476837158 1.0 0.0
1.2999999523162842 1.0 0.0
1.399999976158142 1.0 0.0
1.5 1.0 0.0
1.600000023841858 1.0 0.0
1.7000000476837158 1.0 0.0
1.7999999523162842 1.0 0.0
1.899999976158142 1.0 0.0
2.0 1.0 0.0
2.0999999046325684 1.0 0.0
2.200000047683716 1.0 0.0
2.299999952316284 1.0 0.0
2.4000000953674316 1.0 0.0
2.5 1.0 0.0
2.5999999046325684 1.0 0.0
2.700000047683716 1.0 0.0
2.799999952316284 1.0 0.0
2.9000000953674316 1.0 0.0
3.0 1.0 0.0
3.0999999046325684 1.0 0.0
3.200000047683716 1.0 0.0
3.299999952316284 1.0 0.0
3.4000000953674316 1.0 0.0
3.5 1.0 0.0
3.5999999046325684 1.0 0.0
3.700000047683716 1.0 0.0
3.799999952316284 1.0 0.0
3.9000000953674316 1.0 0.0
4.0 1.0 0.0
4.099999904632568 1.0 0.0
4.199999809265137 1.0 0.0
4.300000190734863 1.0 0.0
4.400000095367432 1.0 0.0
4.5 1.0 0.0
4.599999904632568 1.0 0.0
4.699999809265137 1.0 0.0
4.800000190734863 1.0 0.0
4.900000095367432 1.0 0.0
5.0 0.8999999761581421 0.0
5.0 0.800000011920929 0.0
5.0 0.699999988079071 0.0
5.0 0.6000000238418579 0.0
5.0 0.5 0.0
5.0 0.4000000059604645 0.0
5.0 0.30000001192092896 0.0
5.0 0.20000000298023224 0.0
5.0 0.10000000149011612 0.0
4.900000095367432 0.0 0.0
4.800000190734863 0.0 0.0
4.699999809265137 0.0 0.0
4.599999904632568 0.0 0.0
4.5 0.0 0.0
4.400000095367432 0.0 0.0
4.300000190734863 0.0 0.0
4.199999809265137 0.0 0.0
4.099999904632568 0.0 0.0
4.0 0.0 0.0
3.9000000953674316 0.0 0.0
3.799999952316284 0.0 0.0
3.700000047683716 0.0 0.0
3.5999999046325684 0.0 0.0
3.5 0.0 0.0
3.4000000953674316 0.0 0.0
3.299999952316284 0.0 0.0
3.200000047683716 0.0 0.0
3.0999999046325684 0.0 0.0
3.0 0.0 0.0
2.9000000953674316 0.0 0.0
2.799999952316284 0.0 0.0
2.700000047683716 0.0 0.0
2.5999999046325684 0.0 0.0
2.5 0.0 0.0
2.4000000953674316 0.0 0.0
2.299999952316284 0.0 0.0
2.200000047683716 0.0 0.0
2.0999999046325684 0.0 0.0
2.0 0.0 0.0
1.899999976158142 0.0 0.0
1.7999999523162842 0.0 0.0
1.7000000476837158 0.0 0.0
1.600000023841858 0.0 0.0
1.5 0.0 0.0
1.399999976158142 0.0 0.0
1.2999999523162842 0.0 0.0
1.2000000476837158 0.0 0.0
1.100000023841858 0.0 0.0
1.0 0.0 0.0
0.8999999761581421 0.0 0.0
0.800000011920929 0.0 0.0
0.699999988079071 0.0 0.0
0.6000000238418579 0.0 0.0
0.5 0.0 0.0
0.4000000059604645 0.0 0.0
0.30000001192092896 0.0 0.0
0.20000000298023224 0.0 0.0
0.10000000149011612 0.0 0.0
0.0 0.10000000149011612 0.0
0.0 0.20000000298023224 0.0
0.0 0.30000001192092896 0.0
0.0 0.4000000059604645 0.0
0.0 0.5 0.0
0.0 0.6000000238418579 0.0
0.0 0.699999988079071 0.0
0.0 0.800000011920929 0.0
0.0 0.8999999761581421 0.0
0.7496038675308228 0.5164291858673096 0.0
1.3451675176620483 0.5190238952636719 0.0
1.9462687969207764 0.4963642954826355 0.0
4.456614971160889 0.5060901641845703 0.0
3.864220380783081 0.4866538345813751 0.0
3.249823808670044 0.482722669839859 0.0
2.6500000953674316 0.5 0.0
0.3810288906097412 0.399004191160202 0.0
2.308779239654541 0.3797946870326996 0.0
1.0499999523162842 0.6625000238418579 0.0
1.644740104675293 0.6598879098892212 0.0
4.150000095367432 0.3375000059604645 0.0
3.555316209793091 0.3343118131160736 0.0
2.9446933269500732 0.3401789665222168 0.0
1.6342840194702148 0.3290160894393921 0.0
1.0591840744018555 0.33908534049987793 0.0
2.9654481410980225 0.6753292679786682 0.0
3.5534629821777344 0.6835107207298279 0.0
4.153462886810303 0.6835107207298279 0.0
2.2139804363250732 0.6805098056793213 0.0
0.4914395809173584 0.6739721894264221 0.0
4.691666603088379 0.6916666626930237 0.0
4.691666603088379 0.3083333373069763 0.0
2.4872219562530518 0.7236665487289429 0.0
0.6240421533584595 0.2677222192287445 0.0
2.0697431564331055 0.2657754421234131 0.0
2.5389034748077393 0.26082900166511536 0.0
0.8147311806678772 0.7450684309005737 0.0
1.2897310256958008 0.743314266204834 0.0
1.8853894472122192 0.7450258731842041 0.0
4.382374286651611 0.23655959963798523 0.0
3.910269021987915 0.25668570399284363 0.0
3.1838724613189697 0.25397706031799316 0.0
1.398239254951477 0.2614254057407379 0.0
3.201760768890381 0.7385746240615845 0.0
3.8017609119415283 0.7385746240615845 0.0
4.39177942276001 0.7466779351234436 0.0
0.25301694869995117 0.7458874583244324 0.0
2.7258167266845703 0.7600342631340027 0.0
0.84163498878479 0.2263137847185135 0.0
0.22429518401622772 0.22429518401622772 0.0
2.7605957984924316 0.22504857182502747 0.0
1.8330284357070923 0.2150011658668518 0.0
0.2192869633436203 0.5323538780212402 0.0
4.7908525466918945 0.5038931369781494 0.0
2.466000556945801 0.5376454591751099 0.0
3.7061264514923096 0.17723728716373444 0.0
3.3929696083068848 0.20266839861869812 0.0
1.4905184507369995 0.7937026619911194 0.0
1.2104878425598145 0.20361483097076416 0.0
3.9895122051239014 0.7963851690292358 0.0
3.389512300491333 0.7963851690292358 0.0
0.5652223825454712 0.5070380568504333 0.0
0.44509074091911316 0.19716571271419525 0.0
2.1318352222442627 0.5042122602462769 0.0
1.548349142074585 0.4954715371131897 0.0
3.050636053085327 0.5004673004150391 0.0
0.9511125087738037 0.498258113861084 0.0
3.651650905609131 0.5045284628868103 0.0
4.248488903045654 0.4980509281158447 0.0
1.1537858247756958 0.49593159556388855 0.0
4.050199031829834 0.49993085861206055 0.0
3.464722156524658 0.509624183177948 0.0
1.749653697013855 0.5001751780509949 0.0
2.851828098297119 0.5057260394096375 0.0
2.359710216522217 0.1888567954301834 0.0
2.0499017238616943 0.8199846148490906 0.0
0.6430503129959106 0.8181284070014954 0.0
4.560274600982666 0.1724673956632614 0.0
4.55863094329834 0.8299665451049805 0.0
2.321284055709839 0.8242537379264832 0.0
4.815218925476074 0.8345447778701782 0.0
4.837246894836426 0.16590170562267303 0.0
0.9682294130325317 0.8331464529037476 0.0
1.730908751487732 0.827606201171875 0.0
4.220076560974121 0.17516615986824036 0.0
3.02066969871521 0.18326662480831146 0.0
1.5634372234344482 0.17044226825237274 0.0
3.035303831100464 0.8294908404350281 0.0
3.627507209777832 0.8360387086868286 0.0
4.2312469482421875 0.8315803408622742 0.0
4.618130683898926 0.5361976027488708 0.0
0.40311703085899353 0.8369210362434387 0.0
1.1473191976547241 0.8458209037780762 0.0
4.052680969238281 0.15417908132076263 0.0
2.020958423614502 0.6394158005714417 0.0
0.662188708782196 0.6447370648384094 0.0
4.5115838050842285 0.3538685142993927 0.0
1.0221220254898071 0.15309639275074005 0.0
0.3837882876396179 0.5515117049217224 0.0
3.548090934753418 0.15800617635250092 0.0
1.4348299503326416 0.6465393304824829 0.0
3.765170097351074 0.3534606993198395 0.0
3.3348300457000732 0.3534606993198395 0.0
1.2546738386154175 0.36384353041648865 0.0
3.945326089859009 0.636156439781189 0.0
3.3412928581237793 0.637225866317749 0.0
2.1904795169830322 0.17066854238510132 0.0
0.16392111778259277 0.38331863284111023 0.0
2.87723445892334 0.8265392184257507 0.0
4.8459792137146 0.6499902606010437 0.0
4.845625400543213 0.34837812185287476 0.0
2.771622896194458 0.38129922747612 0.0
4.5222978591918945 0.6578375697135925 0.0
2.604464530944824 0.8240283727645874 0.0
1.8544400930404663 0.3751189708709717 0.0
0.8566747903823853 0.38255012035369873 0.0
2.2932615280151367 0.5369129776954651 0.0
2.620572805404663 0.6496497392654419 0.0
0.7172287106513977 0.1490369737148285 0.0
0.1410960853099823 0.8303417563438416 0.0
1.7142322063446045 0.142862930893898 0.0
2.6314175128936768 0.14492936432361603 0.0
1.9832650423049927 0.1408119648694992 0.0
2.445650577545166 0.370038241147995 0.0
2.885042667388916 0.1455758661031723 0.0
0.13937503099441528 0.6546638011932373 0.0
0.9110832810401917 0.6349053978919983 0.0
3.088575839996338 0.3613528311252594 0.0
4.296638011932373 0.3563385307788849 0.0
1.1930090188980103 0.6355591416358948 0.0
1.788455843925476 0.6387236714363098 0.0
4.006990909576416 0.3644408583641052 0.0
1.4459187984466553 0.39242905378341675 0.0
4.354081153869629 0.6075709462165833 0.0
3.7540812492370605 0.6075709462165833 0.0
3.1591691970825195 0.6018876433372498 0.0
2.7615907192230225 0.6205627918243408 0.0
2.36276912689209 0.6735464930534363 0.0
1.3681535720825195 0.8630191683769226 0.0
3.8318464756011963 0.1369808316230774 0.0
3.275517463684082 0.10712132602930069 0.0
0.5630941987037659 0.12814241647720337 0.0
1.3237862586975098 0.10638008266687393 0.0
3.2733232975006104 0.8705052733421326 0.0
3.8733232021331787 0.8705052733421326 0.0
2.0396511554718018 0.38928428292274475 0.0
2.2168734073638916 0.8508136868476868 0.0
0.5163488388061523 0.3409615159034729 0.0
0.6547463536262512 0.3955095112323761 0.0
1.9480526447296143 0.8710126876831055 0.0
4.689375877380371 0.13700176775455475 0.0
4.698264122009277 0.8675068616867065 0.0
0.7578787803649902 0.8698469996452332 0.0
2.479548454284668 0.13692785799503326 0.0
2.4562506675720215 0.8735422492027283 0.0
2.171211004257202 0.3573116958141327 0.0
3.5117530822753906 0.853193998336792 0.0
4.107914924621582 0.8658969402313232 0.0
2.640726327896118 0.354434996843338 0.0
4.346996307373047 0.1279495507478714 0.0
0.3128283619880676 0.11246757209300995 0.0
0.136248379945755 0.12152919173240662 0.0
4.453908443450928 0.8629162907600403 0.0
1.6064813137054443 0.8679171800613403 0.0
0.3380795121192932 0.6626779437065125 0.0
0.5102446675300598 0.875635027885437 0.0
0.7425088882446289 0.2989330589771271 0.0
3.1349449157714844 0.10448489338159561 0.0
1.3287748098373413 0.6181886196136475 0.0
3.871795415878296 0.38215625286102295 0.0
3.229135036468506 0.3810797333717346 0.0
0.28971707820892334 0.8759857416152954 0.0
0.9214505553245544 0.11992674320936203 0.0
1.9219478368759155 0.6237660050392151 0.0
1.530794620513916 0.29603153467178345 0.0
3.072223663330078 0.7044162750244141 0.0
3.6722235679626465 0.7044162750244141 0.0
[...]
POINT_DATA 715
SCALARS Psi double
LOOKUP_TABLE default
0.0
0.0
1.0
1.0
1.0
1.0
1.0
1.0
1.0
1.0
1.0
1.0
1.0
1.0
1.0
1.0
1.0
1.0
1.0
1.0
1.0
1.0
1.0
1.0
1.0
1.0
1.0
1.0
1.0
1.0
1.0
1.0
1.0
1.0
1.0
1.0
1.0
1.0
1.0
1.0
1.0
1.0
1.0
1.0
1.0
1.0
1.0
1.0
1.0
1.0
1.0
1.0
1.0
0.9130375674477282
0.8464903974892285
0.7403004297709466
0.6165894371188861
0.483445453912022
0.3479430181493025
0.21717037747647638
0.10189986813297067
0.028981090647943616
0.0
0.0
0.0
0.0
0.0
0.0
0.0
0.0
0.0
0.0
0.0
0.0
0.0
0.0
0.0
0.0
0.0
0.0
0.0
0.0
0.0
0.0
0.0
0.0
0.0
0.0
0.0
0.0
0.0
0.0
0.0
0.0
0.0
0.0
0.0
0.0
0.0
0.0
0.0
0.0
0.0
0.0
-0.0
0.0
0.0
0.0
0.0
0.0
0.0
0.027954970548028365
0.10929289287533865
0.21225839474986027
0.31554350710425605
0.41853837307273994
0.5176270184981684
0.6093548824054014
0.6841857406292366
0.6446627232913242
0.524540482677094
0.5245915250663573
0.4980863687603795
0.5007958126204546
0.47365719548543705
0.47318502868506584
0.5063541613083404
0.3313456401826003
0.3330127696480314
0.7273858416368294
0.7258878302750211
0.2635006711457277
0.2561477340420205
0.27693456425557816
0.2571551835299477
0.2730668185383239
0.7594994249683397
0.751201142802637
0.752761805721448
0.7630211621439463
0.7502457426106973
0.7561750339252391
0.22238558742377887
0.8211564876028897
0.17450757885862314
0.17509205151565083
0.1676873403393481
0.8436493310592063
0.8394456571051384
0.8456247801540352
0.12081106423623846
0.15426447402000718
0.1508604808671041
0.1587363125013509
0.8368549964456955
0.8301222135961839
0.8428891171132584
0.796774357389209
0.8759036665782302
0.1295575900271298
0.11225258678177959
0.11947864046118185
0.10595498648867892
0.4740379802638882
0.4915428421602759
0.5592130695538827
0.051832819718981675
0.07870269646014096
0.9035135293900183
0.08028541921474891
0.9014297402219378
0.9002348310624418
0.5022439796786252
0.07534765638237025
0.5106856423056649
0.49230200069421454
0.5041103846100905
0.4983971304614439
0.49848209158603324
0.4901216728121555
0.4925269767242815
0.4928354489927258
0.5070113594811907
0.5012622294859282
0.5148281834269943
0.07111855897464597
0.9398633241545248
0.9457169249935177
0.05280207031557859
0.9431362654422174
0.948674576393384
0.9256299508401493
0.04751066917516335
0.9442188392166769
0.9427630225869014
0.05326544866067099
0.06779180269720513
0.053442421611944194
0.9560974645838783
0.9480560458108765
0.9447020798228913
0.5409104509221332
0.9788752412262293
0.958985893088736
0.039283163334091875
0.7019661586766446
0.710753002407277
0.28509436994851994
0.042122032032195285
0.5393761369159271
0.03613272348146923
0.7058712748724746
0.2836427424873159
0.2868437268756383
0.30307143247542545
0.6852022712016198
0.6898192479679073
0.05643750203821823
0.2997095334113023
0.9579690920115141
0.6878701744122895
0.27645024935255774
0.3365506000430654
0.7163132600823928
0.9485191383447579
0.32507520649417965
0.33741627617886194
0.5578346318576838
0.7200396945331727
0.044406532332179054
0.8271396932321247
0.03423727376617992
0.03344283181359793
0.032584659781296675
0.31967357395040125
0.032601816838938195
0.5916618885528411
0.690751323454193
0.3037796643075602
0.288661308881548
0.6898155760117178
0.6983423884131449
0.3019859774249182
0.34461821920915614
0.6461746157740628
0.6449822341608855
0.6464777584630582
0.6803878959927215
0.7525836389641892
0.9716372226106308
0.023318134822568694
-0.003420384131474557
0.022672579406012864
-0.0033061523296017982
0.975243589966081
0.9771986409450262
0.34694338634380734
0.9725750566520333
0.2647246029410335
0.35014439362013255
0.982596627767529
0.02739035847582226
0.9731324548838238
0.9784380055757785
0.0274573394679079
0.9808852060553909
0.30159158255075064
0.9581634938025123
0.9717675025756543
0.2981795061242957
0.007165414020099179
0.003389833575002185
0.022325665057560975
0.9737108696257127
0.9738738594908689
0.697869600045562
0.9955025535543233
0.22136633834779326
-0.001357017689457418
0.66548089075382
0.32604293401577067
0.3284787935448077
1.0201531167649982
0.02579702775031406
0.6785596429234549
0.2095106021893024
0.7967486193978935
0.7811888745976233
0.7834546048499315
1.0158373846327187
0.6606733533283865
0.003836842085904714
0.994452162635506
0.9936071057310144
0.15970040152858725
0.3601811186471641
0.21584858414974198
0.9963188594178042
0.0040471755108631696
0.8401678760569704
0.32651973079656466
0.14610700290394701
0.34920981704540455
0.013963345959088354
0.16425717372126714
0.9911454397469688
0.9850265866463314
0.15280715612218274
0.22264949813793655
-0.006812256761504093
0.44840172995097727
-0.008232870146666344
0.41158614251204306
0.22519012607142197
-0.006497702528408049
-0.00436184054646867
0.42649804397999763
0.43808628045901293
0.42578659950919995
0.5655402842995626
0.5692711427901286
0.0022228599809694014
0.5508060776434905
0.001439399123650167
0.6659106473429924
0.15747007819886363
0.6107596888920425
1.0038444698199094
0.769413358689714
0.1933261252795489
0.7640328650430233
0.21553972293079673
0.23289054199447476
0.7741681444266728
1.001129822764307
-0.0015015376891231607
0.16318194360949612
0.8268670730804337
0.16293395436963112
0.3434724407274307
0.6061855384309647
0.7959807846572826
0.15324112348894245
0.4164337078700238
0.4169727281281693
0.5932997397100671
0.5792619382233357
0.5787697582140525
0.025621866307486973
0.6607409819960165
0.1586294455801569
0.8305410066485867
0.8274176755540867
0.567726741138706
0.42327470097641745
0.43381542242724636
9.219248960847913e-05
0.5714347254229187
0.8239177521489697
0.16846529069989097
1.0129651816819385
0.22635482991742992
0.5687100207491091
0.6495694569961142
0.42842053838298266
0.8313168243624406
0.5629460605096317
0.9995572886480126
0.4567660745303934
0.9845303222126566
0.9824774037382479
0.8638607016455383
0.8374478174508811
0.9538285987734445
0.011698677984104719
0.43652884250098317
0.6790176155962365
0.5625447500343949
0.6547179800512376
0.39883925662634334
0.1311899616426109
-0.0043130601435615035
0.45411960618151337
0.21561269847565306
0.8073026766376197
0.5436121238348717
0.44930856571509975
0.45289778006958425
0.829384246944463
0.8330686617583932
0.1674018505752262
0.15575588574893606
0.8359618751075739
0.4223035743072168
1.0012239499350317
0.15610627636772584
0.8751777804918426
0.8791230420851586
0.3778191367349496
0.8966506080038695
1.0100108223989308
0.14886296890786208
0.18346219124208454
0.6528347606835331
0.3422462828249554
0.6484006804554647
0.6612349876571064
0.10882049845949501
0.6353471722731964
0.3574870550450543
0.3572672225420363
0.004646941704159318
0.47643625892932195
0.28302152769170874
0.7041302685785208
0.7296627120769992
0.3594340660619683
0.8463496512152976
0.6383904752796016
0.6376011468017542
0.6201960667779386
0.007157814583422484
0.01044720789903135
0.17457275902231542
0.7921097450616138
-0.009188859620369421
0.9057182326243465
0.894813174559771
0.8199568681322432
-0.005955840877519603
-0.009758604593460278
0.19982560208858452
0.3632918130204802
-0.004404027649648388
1.0038604929395192
0.3526075372987878
0.8631581228124457
1.0038020171835769
0.8411142146369102
0.150824109816337
1.0134635524961795
-0.005754971797937111
0.12634460732114547
0.9940512050626327
-0.002732597555820137
0.3302823591295299
-0.0011166682368300802
0.6694769730973547
0.003343073544031714
1.005631825831016
1.008027059177133
0.13782040026361686
0.5001656944417808
0.18205358187274706
0.9987999646626042
0.8570467004704524
0.9998472373482336
0.36466827382514216
0.999201612506312
1.0085207060130443
0.1518129952080345
0.11170971110464456
-0.001605264354958518
0.3194589591758904
0.6249556543054597
0.5895093181488323
0.41309235614858425
0.5521848906471164
1.008389944431565
0.25923831129080604
0.5660093352988143
1.003034938126433
-0.0017986391197223975
-0.005590777984184248
0.21605009233810896
0.41856790024068163
0.5640090169594544
-0.002885781457539955
0.8996329586350974
1.0147938998184385
0.8836682992053756
0.11244357314092036
0.8897333432189957
0.8799565754537013
0.6123253280612566
0.10708440030917558
0.8713265140035596
-0.00462698099102063
0.30784068756851535
0.0015181197183883615
0.907308705471329
0.08921565788340785
-0.0043998695613098006
0.5712442252160366
0.5498601824687189
1.0104370385344794
1.0195273643911675
1.0065600476068408
0.0008820898362481115
0.44060002460269715
0.6428552831878191
0.6470106416024312
0.649611807377315
0.34877381343982633
0.34493914846213325
0.35386016728918723
0.9262054885478075
1.0351022750872196
0.9967110117725737
0.9925637044116237
0.9554969845475055
0.685039406277314
0.7226535085764025
-0.006185655053584433
0.07472471820169803
0.7566213741078348
0.68172284429673
0.27809656603874133
0.8749482616362108
0.10681035327800557
0.09733004384589776
0.6878504912397321
0.600250041764362
0.4379222433249585
0.9980207271085092
1.0043748381949653
0.745084227617465
0.11807876461303546
0.9126338755587636
0.24374852255010174
0.9415212668861598
0.06730764230942878
1.0032631990626004
0.0019516630587676563
0.38520862893697305
0.601280648500591
0.38034706621413805
0.8274652589826397
0.05713816049644787
0.5751150368448917
0.3830857640717238
0.8015006073625321
-0.0028774434131394935
-0.007345466311275663
0.19201029419743268
0.20733465733437706
0.07112184979993287
0.13142483277627542
0.9198150473226854
0.7983121899962992
0.19486944611124374
0.7551120780733266
0.24068696362145814
0.9092018314854046
0.8741258849245598
0.8711151320560453
-0.0118520251382849
0.9243537956297709
0.3733477195336872
0.24958174021574486
1.004127135367584
0.20100781484905952
0.5470390906517103
0.6889809747481308
0.5893887886971253
0.6233762115717251
0.05196022382478975
0.9356130642625108
0.9347740907045833
0.08075151193352773
0.7029264759848561
-0.011232640097298564
1.0101115367831544
1.0068596355934807
0.04591984897903318
0.06923046380964565
0.8767466498128554
0.2698296157350129
0.9350498546204786
0.46705724106739865
0.8292239993387174
-2.6816039387740115e-05
0.6120256127198096
0.3760625505109754
0.3837685684462577
1.0031593647914185
-0.003821262110893198
0.5642890976479619
-0.010886136832217872
0.4154533655355919
0.07714091984263415
-0.0027394428568045977
0.26659614997695713
0.6057484841962896
0.7256376045588256
0.7480933988610237
0.9305724381024123
0.06477056654848669
0.2729259313193214
0.22269976571713596
0.7289870023615864
1.007569492659299
0.2532057437000156
0.08809843491142477
0.22497322040126833
0.06612809055964035
0.9050273549756366
0.062196866404551354
0.2355065626804307
0.7559068025235784
0.7538600654058895
0.7648759940605486
0.4123009050604928
1.0122839723333819
0.3963391308594476
0.8947173307875925
-0.004095942955105179
0.06449082982992792
0.04971029975041379
0.5812148243639886
0.09155810846880728
0.0015687753013415037
0.060836826444909765
0.08217789926470195
0.4249788890794781
0.5565635013437114
0.03684303730749021
0.22483380361969493
-0.0021982528081188613
1.0022286909070308
0.8894117140146347
0.4344051845319927
0.556928545992831
0.604805601346397
0.9161371255028656
0.06736702233886244
0.06280638671127765
0.9986454499536453
0.04003433498610307
0.5144098272337582
0.34848954882695093
0.13655250028048646
-0.0032842615464097344
0.7567099388689237
0.9396145873256313
0.17480798624280466
0.15566177229686504
0.8143272892608885
1.0041025300902984
0.05090928789184792
0.9233468329652078
0.9239385797738837
0.45124609056910336
0.4504880100872415
1.0031067388343342
0.23627173266689322
0.3398140498008163
0.3975498057438073
-0.0012120928211259378
0.9552632832771089
0.9554705322953032
0.25178216555502414
0.5799903344745919
0.7971467681499707
0.797559394257368
0.20920474349043977
0.7985588320698621
0.2638393914155864
0.8484518167312941
0.8509983084341582
0.5929871827507155
0.8683968641108484
0.5970927458575874
0.06726507238800826
0.9279367535647464
0.4074303347105556
0.5917254318324251
0.3963723754605366
-0.011980413277819207
0.3261413225422145
0.062089556035119786
-0.002900780759876452
0.5604115837767517
0.14179344633309365
0.24060367135832963
0.08671525954197538
0.7637439023989208
0.8437989943314873
0.9664244701300575
0.570284079022596
0.003765951778666483
0.427868370265864
0.09241898948455553
1.0000694808348445
1.0019306703911386
-0.004235294251187762
0.05856173461123961
0.9327362762769824
0.0002985207691713253
-0.009039156931723127
0.2689394514179306
0.7230909044516025
0.4474525973937052
1.0044814491993574
0.2693593902844215
0.7849866119139184
0.23008695442567087
0.7654099905094642
0.22603705094376722
0.9785144680487086
0.0026932488104916483
0.42154161437351073
1.0035315259681505
0.9468492542788475
0.055629219003236405

SCALARS Omega double
LOOKUP_TABLE default
-7.755663845751615
-1.238463095635775
8.359339458829101
15.801308719361508
35.81623173326072
-6.643676606070314
2.0218965695636553
-5.080598001205474
-0.6105023616400735
2.491898240876468
-0.11023075105565684
-1.469793113019189
0.8270254574700682
2.1476259547720797
0.24418719936664418
0.7966883109481193
0.5764384813669065
0.8640870879057109
2.3202227340888046
-0.2685844116136865
1.9921688476370543
1.4635096945038284
-1.5518234311239156
0.46359150295375295
1.3244141530301297
1.0237876964190546
0.5033154387809918
-0.31279976877830773
0.15875019725105327
1.6956826896340684
1.0552030510897354
-0.17507568617046743
1.353921288970388
0.7737128475339965
0.37559538120529773
1.5572941449826156
0.9424659788583586
0.5357463923260991
1.8685791120893946
0.9510702267329105
1.7335736886149233
0.851642979340691
0.3258664015881884
0.58635152377893
1.263536597795322
1.1071429727531343
2.8942901894688977
0.26892648551597226
-1.3716210962760824
2.687293772028358
1.2320579380833312
2.9129001058770516
10.290633040979609
-6.72544035258521
-0.04420267631003994
1.467866739934904
0.9910594589573118
-0.05317312766423668
-0.23253532086301207
-1.1610265908614836
-2.0148334016801677
-2.4320117039145535
-0.6075177231917334
-1.7277959360463746
-1.4354014281661107
0.19376728912419353
-1.2247295945951224
-0.37499136501720515
-1.2118138815350126
-1.0508595167363008
-0.14522746455528238
-0.8781897785851558
-0.5655420838217617
0.5243020182879844
-2.4275135378497064
-0.42489361281250715
0.8656967424361264
-2.0855603420401265
-0.5667288630095089
0.5090503780351993
-1.5397705110573203
-0.96790451179624
-0.05595244052222981
-1.0577650357386796
-0.7430066790178811
-1.5854069403571043
0.5385260733839239
-0.2451221495954999
-1.3842998092153855
-1.477498119320795
-0.8312018436339506
1.2792321722983855
-1.9191963464982211
-1.6711335203004551
0.48907428913034484
-1.1040956264064061
-1.4053575848185575
0.2363606208737425
-0.2837799355818503
-1.6602541355974494
-1.4902666101411481
0.13182783597756245
-2.365196137915238
-0.4760260327486519
-2.5088986049405295
-0.27307183536163676
0.3524721981965267
-2.013938027595259
-1.6556981991278614
-0.7621369776592739
0.9281587249567025
-4.52212923474286
2.700415836828094
0.3690312743791599
-0.06523993985568155
-0.8511899103369222
1.531312557075776
-5.99154064309433
-2.431653137547488
-42.38024304500433
-0.010121390581975148
3.946262528965102e-05
-0.00011761919439839571
-0.0011693706627421716
0.002647990680471652
-0.004167477381745709
0.0025209842895384973
-0.2609273671586366
-0.09821730195007922
0.16945947730883396
0.16418122082121417
-0.3567303599046257
-0.108454028662859
-0.14609173917983803
-0.2555951354154066
-0.19270421336313245
0.4268934062011747
0.19820664824787862
0.20257308261315202
0.3062486789006164
1.1390642558544593
0.4745740149264162
-0.4300797859817895
1.1867772126723772
-1.070421558869575
-1.516066932575032
-1.5073568574008298
1.8659960143288707
1.8730689761488855
1.6718946658904852
-2.5361940690929976
-1.613433513338664
-1.5161063617765096
-1.339602770597538
1.7611334883625445
1.3522579314730803
2.0372439751268794
1.8707836736875179
2.309810792797583
-2.1711571864311483
-1.8346029156871617
-2.72037043153605
-3.119269833068291
-1.0691225913549618
-0.030838256183574206
-0.0017023495172381066
-6.831116423008691
-4.253841766023438
3.6527887349506
-4.174400227044146
3.658221281142935
3.4498966108292755
-0.2094868962549463
-4.6698037595685875
0.0037540180298459946
0.006231277563524892
-0.002701628194237223
0.0004407014236567738
0.006192482878016902
0.0003035387669933558
0.00013052051744007835
0.0009431954722789275
-0.00363631902262495
0.0015705696418148174
-0.0023876231986868514
-5.020780251082804
5.3079786828458815
6.2572593722983205
-5.935462424670205
6.305992222580777
6.4565058042190335
5.17209134939961
-5.850252930582937
5.302581628066346
5.619148717406023
-6.094701266513997
-4.559952821389149
-6.386388367092538
7.504421303662595
5.876814233841849
5.797623087446698
-0.008361386962977843
13.25526347639045
7.188389488561024
-6.724910928123394
0.1377224324772003
0.6111703118760645
-0.05418290666418046
-6.1176367313302285
-1.0535404912558703
-7.118808618702754
0.18031589865721276
-0.14219618558839212
-0.05506919976074337
-0.06346289115534852
-0.016279545074397037
0.056710784982327594
-5.594089664954616
-0.11515394808830479
6.793626632065948
-0.05674623711682513
0.0862789240315215
-0.07748789704632594
0.10133014422849933
5.681232969670255
-0.06818948344731622
-0.03967455985459351
-0.004043553062073485
0.10114707209363046
-6.520646468527541
-1.1714334850067774
-7.377514374001882
-7.490808826506549
-7.924846725816849
-0.07473997112898047
-7.5030006859370495
-4.231364235018149
0.12958675848904982
-0.15603541990103983
-0.14991164445372132
0.0866712457423272
0.22755849864372096
-0.08786515942547451
-0.02484967776147118
-0.009094253278037324
-0.0009633429792907061
0.005500465554164588
0.07008151425765362
0.5105639952561962
7.913575147951587
-8.468847577653733
-11.683290747147348
-7.803795816738061
-11.841489266098902
8.425343316209805
9.191005783561147
-0.015592115375952604
8.906877058178846
-0.3142481361650782
-0.07718992499927545
9.082908863249637
-7.219921607482519
9.642855310018918
8.15673483047642
-8.020615557785861
7.774997431475063
-0.09708702600002563
6.364274486164184
8.515332710399603
-0.09160286750733776
-11.346768590802046
-11.9092410335119
-9.131512219851574
8.605064154610783
7.548099282602801
-0.7249157585535164
9.74326092665437
-0.5435149166017219
-12.554316439386549
0.09958070394238551
-0.06039117347425181
-0.10563447966373336
23.772453196835936
-7.374021571545154
0.18608314005180251
-0.6779289232377318
0.8972650112604872
0.42506006977406446
0.5744140043889567
13.162506376453676
0.19547136405941323
-11.013699484015957
11.851165238746509
9.501743424140708
-1.4218032950957873
0.011121191204899655
-0.5485542738662244
10.501023246484229
-9.703743537565511
1.4610426019536025
-0.046612922578188554
-2.0069309924782854
-0.47180960446416587
-8.613215595052989
3.3645169737182425
11.46298043486496
8.391343835299578
-1.7898838291169514
-0.5846008405346148
-13.52223439959857
-0.007934605762118978
-12.266383411673115
-1.3863399517263013
-0.4447326591628442
-12.08144597198708
-12.293088011314309
-0.0002944470974499749
-0.0025157318850619072
0.024549964214901573
0.007078474149066984
-0.0019580699033419514
-11.351848225689283
0.5663462195990908
-12.742451126694819
0.08301786272726937
-1.4567387843172745
-3.369724300781426
13.43286518979343
0.4164811344927157
-0.7571324905636948
0.43019099016830314
-0.257285450725969
-0.47833276141040604
0.4157306511918549
12.352595066960859
-10.47307852547953
-1.529101027945291
1.3867388512430792
-1.019005570469483
-0.017659622922141842
0.0011505436379774811
1.4132780084021306
-3.8856282364650303
0.010557526785326931
-0.0049027073420017525
-0.0015490828007556454
0.004252106054107631
-0.012469302237223092
-7.444932976547932
-7.778159674332482
-1.419619265359871
1.3164293960872495
1.0757454646912097
0.004194081112589507
0.002184513185068712
-0.0020741329422136225
-13.2771272613588
0.002906060644539287
0.8611804964180841
-1.2580568157142578
13.674190228509131
-0.48987498026609483
-0.0181528955541231
0.11743463770529906
-8.499802006691811e-05
1.4147268649352298
0.013132956687772729
12.3672265714603
-0.003642556137662532
9.336545628182137
8.488755765711161
2.247592156142111
2.075139499716068
5.447659906665016
-11.131910933693195
-0.3786041985587599
0.036653144364131106
0.007105742687920774
0.02416194281000678
-0.18585471306834225
-1.9959224751663704