# vtk DataFile Version 1.0
2D Simulation C++
ASCII
DATASET UNSTRUCTURED_GRID
FIELD FieldData 1
NODES 1 2 int
715 1308

POINTS 715 double
0.0 0.0 0.0
5.0 0.0 0.0
5.0 1.0 0.0
0.0 1.0 0.0
0.10000000149011612 1.0 0.0
0.20000000298023224 1.0 0.0
0.30000001192092896 1.0 0.0
0.4000000059604645 1.0 0.0
0.5 1.0 0.0
0.6000000238418579 1.0 0.0
0.699999988079071 1.0 0.0
0.800000011920929 1.0 0.0
0.8999999761581421 1.0 0.0
1.0 1.0 0.0
1.100000023841858 1.0 0.0
1.2000000476837158 1.0 0.0
1.2999999523162842 1.0 0.0
1.399999976158142 1.0 0.0
1.5 1.0 0.0
1.600000023841858 1.0 0.0
1.7000000476837158 1.0 0.0
1.7999999523162842 1.0 0.0
1.899999976158142 1.0 0.0
2.0 1.0 0.0
2.0999999046325684 1.0 0.0
2.200000047683716 1.0 0.0
2.299999952316284 1.0 0.0
2.4000000953674316 1.0 0.0
2.5 1.0 0.0
2.5999999046325684 1.0 0.0
2.700000047683716 1.0 0.0
2.799999952316284 1.0 0.0
2.9000000953674316 1.0 0.0
3.0 1.0 0.0
3.0999999046325684 1.0 0.0
3.200000047683716 1.0 0.0
3.299999952316284 1.0 0.0
3.4000000953674316 1.0 0.0
3.5 1.0 0.0
3.5999999046325684 1.0 0.0
3.700000047683716 1.0 0.0
3.799999952316284 1.0 0.0
3.9000000953674316 1.0 0.0
4.0 1.0 0.0
4.099999904632568 1.0 0.0
4.199999809265137 1.0 0.0
4.300000190734863 1.0 0.0
4.400000095367432 1.0 0.0
4.5 1.0 0.0
4.599999904632568 1.0 0.0
4.699999809265137 1.0 0.0
4.800000190734863 1.0 0.0
4.900000095367432 1.0 0.0
5.0 0.8999999761581421 0.0
5.0 0.800000011920929 0.0
5.0 0.699999988079071 0.0
5.0 0.6000000238418579 0.0
5.0 0.5 0.0
5.0 0.4000000059604645 0.0
5.0 0.30000001192092896 0.0
5.0 0.20000000298023224 0.0
5.0 0.10000000149011612 0.0
4.900000095367432 0.0 0.0
4.800000190734863 0.0 0.0
4.699999809265137 0.0 0.0
4.599999904632568 0.0 0.0
4.5 0.0 0.0
4.400000095367432 0.0 0.0
4.300000190734863 0.0 0.0
4.199999809265137 0.0 0.0
4.099999904632568 0.0 0.0
4.0 0.0 0.0
3.9000000953674316 0.0 0.0
3.799999952316284 0.0 0.0
3.700000047683716 0.0 0.0
3.5999999046325684 0.0 0.0
3.5 0.0 0.0
3.4000000953674316 0.0 0.0
3.299999952316284 0.0 0.0
3.200000047683716 0.0 0.0
3.0999999046325684 0.0 0.0
3.0 0.0 0.0
2.9000000953674316 0.0 0.0
2.799999952316284 0.0 0.0
2.700000047683716 0.0 0.0
2.5999999046325684 0.0 0.0
2.5 0.0 0.0
2.4000000953674316 0.0 0.0
2.299999952316284 0.0 0.0
2.200000047683716 0.0 0.0
2.0999999046325684 0.0 0.0
2.0 0.0 0.0
1.899999976158142 0.0 0.0
1.7999999523162842 0.0 0.0
1.7000000476837158 0.0 0.0
1.600000023841858 0.0 0.0
1.5 0.0 0.0
1.399999976158142 0.0 0.0
1.2999999523162842 0.0 0.0
1.2000000476837158 0.0 0.0
1.100000023841858 0.0 0.0
1.0 0.0 0.0
0.8999999761581421 0.0 0.0
0.800000011920929 0.0 0.0
0.699999988079071 0.0 0.0
0.6000000238418579 0.0 0.0
0.5 0.0 0.0
0.4000000059604645 0.0 0.0
0.30000001192092896 0.0 0.0
0.20000000298023224 0.0 0.0
0.10000000149011612 0.0 0.0
0.0 0.10000000149011612 0.0
0.0 0.20000000298023224 0.0
0.0 0.30000001192092896 0.0
0.0 0.4000000059604645 0.0
0.0 0.5 0.0
0.0 0.6000000238418579 0.0
0.0 0.699999988079071 0.0
0.0 0.800000011920929 0.0
0.0 0.8999999761581421 0.0
0.7496038675308228 0.5164291858673096 0.0
1.3451675176620483 0.5190238952636719 0.0
1.9462687969207764 0.4963642954826355 0.0
4.456614971160889 0.5060901641845703 0.0
3.864220380783081 0.4866538345813751 0.0
3.249823808670044 0.482722669839859 0.0
2.6500000953674316 0.5 0.0
0.3810288906097412 0.399004191160202 0.0
2.308779239654541 0.3797946870326996 0.0
1.0499999523162842 0.6625000238418579 0.0
1.644740104675293 0.6598879098892212 0.0
4.150000095367432 0.3375000059604645 0.0
3.555316209793091 0.3343118131160736 0.0
2.9446933269500732 0.3401789665222168 0.0
1.6342840194702148 0.3290160894393921 0.0
1.0591840744018555 0.33908534049987793 0.0
2.9654481410980225 0.6753292679786682 0.0
3.5534629821777344 0.6835107207298279 0.0
4.153462886810303 0.6835107207298279 0.0
2.2139804363250732 0.6805098056793213 0.0
0.4914395809173584 0.6739721894264221 0.0
4.691666603088379 0.6916666626930237 0.0
4.691666603088379 0.3083333373069763 0.0
2.4872219562530518 0.7236665487289429 0.0
0.6240421533584595 0.2677222192287445 0.0
2.0697431564331055 0.2657754421234131 0.0
2.5389034748077393 0.26082900166511536 0.0
0.8147311806678772 0.7450684309005737 0.0
1.2897310256958008 0.743314266204834 0.0
1.8853894472122192 0.7450258731842041 0.0
4.382374286651611 0.23655959963798523 0.0
3.910269021987915 0.25668570399284363 0.0
3.1838724613189697 0.25397706031799316 0.0
1.398239254951477 0.2614254057407379 0.0
3.201760768890381 0.7385746240615845 0.0
3.8017609119415283 0.7385746240615845 0.0
4.39177942276001 0.7466779351234436 0.0
0.25301694869995117 0.7458874583244324 0.0
2.7258167266845703 0.7600342631340027 0.0
0.84163498878479 0.2263137847185135 0.0
0.22429518401622772 0.22429518401622772 0.0
2.7605957984924316 0.22504857182502747 0.0
1.8330284357070923 0.2150011658668518 0.0
0.2192869633436203 0.5323538780212402 0.0
4.7908525466918945 0.5038931369781494 0.0
2.466000556945801 0.5376454591751099 0.0
3.7061264514923096 0.17723728716373444 0.0
3.3929696083068848 0.20266839861869812 0.0
1.4905184507369995 0.7937026619911194 0.0
1.2104878425598145 0.20361483097076416 0.0
3.9895122051239014 0.7963851690292358 0.0
3.389512300491333 0.7963851690292358 0.0
0.5652223825454712 0.5070380568504333 0.0
0.44509074091911316 0.19716571271419525 0.0
2.1318352222442627 0.5042122602462769 0.0
1.548349142074585 0.4954715371131897 0.0
3.050636053085327 0.5004673004150391 0.0
0.9511125087738037 0.498258113861084 0.0
3.651650905609131 0.5045284628868103 0.0
4.248488903045654 0.4980509281158447 0.0
1.1537858247756958 0.49593159556388855 0.0
4.050199031829834 0.49993085861206055 0.0
3.464722156524658 0.509624183177948 0.0
1.749653697013855 0.5001751780509949 0.0
2.851828098297119 0.5057260394096375 0.0
2.359710216522217 0.1888567954301834 0.0
2.0499017238616943 0.8199846148490906 0.0
0.6430503129959106 0.8181284070014954 0.0
4.560274600982666 0.1724673956632614 0.0
4.55863094329834 0.8299665451049805 0.0
2.321284055709839 0.8242537379264832 0.0
4.815218925476074 0.8345447778701782 0.0
4.837246894836426 0.16590170562267303 0.0
0.9682294130325317 0.8331464529037476 0.0
1.730908751487732 0.827606201171875 0.0
4.220076560974121 0.17516615986824036 0.0
3.02066969871521 0.18326662480831146 0.0
1.5634372234344482 0.17044226825237274 0.0
3.035303831100464 0.8294908404350281 0.0
3.627507209777832 0.8360387086868286 0.0
4.2312469482421875 0.8315803408622742 0.0
4.618130683898926 0.5361976027488708 0.0
0.40311703085899353 0.8369210362434387 0.0
1.1473191976547241 0.8458209037780762 0.0
4.052680969238281 0.15417908132076263 0.0
2.020958423614502 0.6394158005714417 0.0
0.662188708782196 0.6447370648384094 0.0
4.5115838050842285 0.3538685142993927 0.0
1.0221220254898071 0.15309639275074005 0.0
0.3837882876396179 0.5515117049217224 0.0
3.548090934753418 0.15800617635250092 0.0
1.4348299503326416 0.6465393304824829 0.0
3.765170097351074 0.3534606993198395 0.0
3.3348300457000732 0.3534606993198395 0.0
1.2546738386154175 0.36384353041648865 0.0
3.945326089859009 0.636156439781189 0.0
3.3412928581237793 0.637225866317749 0.0
2.1904795169830322 0.17066854238510132 0.0
0.16392111778259277 0.38331863284111023 0.0
2.87723445892334 0.8265392184257507 0.0
4.8459792137146 0.6499902606010437 0.0
4.845625400543213 0.34837812185287476 0.0
2.771622896194458 0.38129922747612 0.0
4.5222978591918945 0.6578375697135925 0.0
2.604464530944824 0.8240283727645874 0.0
1.8544400930404663 0.3751189708709717 0.0
0.8566747903823853 0.38255012035369873 0.0
2.2932615280151367 0.5369129776954651 0.0
2.620572805404663 0.6496497392654419 0.0
0.7172287106513977 0.1490369737148285 0.0
0.1410960853099823 0.8303417563438416 0.0
1.7142322063446045 0.142862930893898 0.0
2.6314175128936768 0.14492936432361603 0.0
1.9832650423049927 0.1408119648694992 0.0
2.445650577545166 0.370038241147995 0.0
2.885042667388916 0.1455758661031723 0.0
0.13937503099441528 0.6546638011932373 0.0
0.9110832810401917 0.6349053978919983 0.0
3.088575839996338 0.3613528311252594 0.0
4.296638011932373 0.3563385307788849 0.0
1.1930090188980103 0.6355591416358948 0.0
1.788455843925476 0.6387236714363098 0.0
4.006990909576416 0.3644408583641052 0.0
1.4459187984466553 0.39242905378341675 0.0
4.354081153869629 0.6075709462165833 0.0
3.7540812492370605 0.6075709462165833 0.0
3.1591691970825195 0.6018876433372498 0.0
2.7615907192230225 0.6205627918243408 0.0
2.36276912689209 0.6735464930534363 0.0
1.3681535720825195 0.8630191683769226 0.0
3.8318464756011963 0.1369808316230774 0.0
3.275517463684082 0.10712132602930069 0.0
0.5630941987037659 0.12814241647720337 0.0
1.3237862586975098 0.10638008266687393 0.0
3.2733232975006104 0.8705052733421326 0.0
3.8733232021331787 0.8705052733421326 0.0
2.0396511554718018 0.38928428292274475 0.0
2.2168734073638916 0.8508136868476868 0.0
0.5163488388061523 0.3409615159034729 0.0
0.6547463536262512 0.3955095112323761 0.0
1.9480526447296143 0.8710126876831055 0.0
4.689375877380371 0.13700176775455475 0.0
4.698264122009277 0.8675068616867065 0.0
0.7578787803649902 0.8698469996452332 0.0
2.479548454284668 0.13692785799503326 0.0
2.4562506675720215 0.8735422492027283 0.0
2.171211004257202 0.3573116958141327 0.0
3.5117530822753906 0.853193998336792 0.0
4.107914924621582 0.8658969402313232 0.0
2.640726327896118 0.354434996843338 0.0
4.346996307373047 0.1279495507478714 0.0
0.3128283619880676 0.11246757209300995 0.0
0.136248379945755 0.12152919173240662 0.0
4.453908443450928 0.8629162907600403 0.0
1.6064813137054443 0.8679171800613403 0.0
0.3380795121192932 0.6626779437065125 0.0
0.5102446675300598 0.875635027885437 0.0
0.7425088882446289 0.2989330589771271 0.0
3.1349449157714844 0.10448489338159561 0.0
1.3287748098373413 0.6181886196136475 0.0
3.871795415878296 0.38215625286102295 0.0
3.229135036468506 0.3810797333717346 0.0
0.28971707820892334 0.8759857416152954 0.0
0.9214505553245544 0.11992674320936203 0.0
1.9219478368759155 0.6237660050392151 0.0
1.530794620513916 0.29603153467178345 0.0
3.072223663330078 0.7044162750244141 0.0
3.6722235679626465 0.7044162750244141 0.0
[...]
POINT_DATA 715
SCALARS Psi double
LOOKUP_TABLE default
0.0
0.0
1.0
1.0
1.0
1.0
1.0
1.0
1.0
1.0
1.0
1.0
1.0
1.0
1.0
1.0
1.0
1.0
1.0
1.0
1.0
1.0
1.0
1.0
1.0
1.0
1.0
1.0
1.0
1.0
1.0
1.0
1.0
1.0
1.0
1.0
1.0
1.0
1.0
1.0
1.0
1.0
1.0
1.0
1.0
1.0
1.0
1.0
1.0
1.0
1.0
1.0
1.0
0.9149838359703224
0.8519056737453905
0.7467825328113529
0.6204450619932199
0.48253476440623216
0.34211462397188364
0.20869254085431446
0.095063079284739
0.02663055205201629
0.0
0.0
0.0
0.0
0.0
0.0
0.0
0.0
0.0
0.0
0.0
0.0
0.0
0.0
0.0
0.0
0.0
0.0
0.0
0.0
0.0
0.0
0.0
0.0
0.0
0.0
0.0
0.0
0.0
0.0
0.0
0.0
0.0
0.0
0.0
0.0
0.0
0.0
0.0
0.0
0.0
0.0
-0.0
0.0
0.0
0.0
0.0
0.0
0.0
0.02773197813470368
0.10850363498622655
0.2104771412782812
0.31251475839853804
0.4143487635231892
0.5127175183428003
0.6043964440158743
0.6799321457615353
0.6423222471376622
0.5281167636595441
0.5271668593413994
0.5001540287978001
0.4996677404964046
0.47242433128012223
0.4719293911790357
0.5079077070527707
0.32524532734206124
0.32888909141991435
0.7388563068700499
0.7357361937085468
0.25461233936523864
0.248357148389598
0.2680458096335336
0.24970520693703036
0.268193725410123
0.768370850422925
0.7607191651661789
0.7607734974841956
0.7739433819375588
0.7575671501011091
0.7649430549641184
0.2123343061555116
0.8318937902174103
0.1659790752126571
0.16817107587515834
0.16084777851336277
0.8584030827139283
0.8476332921381131
0.8555277312348769
0.11269124936221193
0.1455619831872455
0.1416931122972221
0.15092866838344915
0.8455831255131044
0.8385548159244574
0.8494851225269855
0.7952475295208241
0.8835345062538974
0.12264373492171866
0.11168572560911089
0.11292109729242668
0.09994509303544971
0.467823335009176
0.4909386127418383
0.5638605275070361
0.048979796780445756
0.07343705875128519
0.910985486443367
0.0767277038750435
0.9085935684847204
0.9080327664179256
0.5003918427810713
0.07216297032236542
0.5135787491785755
0.4935418240713617
0.504076035283907
0.5021454163382634
0.49895982290851704
0.4885079896934928
0.4949672275383737
0.49173154732198093
0.5077512584541714
0.5031298151289287
0.5156299918143692
0.06753335906306168
0.9451299565188209
0.9542989482956699
0.04829908265013909
0.9460587942919281
0.9528093822914161
0.9313433051806282
0.04257000181079295
0.9508346229305878
0.9473064852829027
0.049665111860021004
0.06165029334614581
0.04935066057206497
0.9588697608171933
0.9521204137066959
0.9484157085826529
0.5419148659451862
0.9801728829986383
0.961431067312163
0.03698354703000548
0.7117189758190321
0.7226478565404348
0.2763894581895992
0.04106253937182256
0.5342094914275627
0.034350338758993446
0.7145323656540886
0.27637223957640134
0.27862219016931616
0.29789998433020454
0.6916813438540838
0.697503971383139
0.05360017590447126
0.296621056830557
0.9601169174470122
0.695009954427612
0.2673990989622411
0.3308180571355671
0.72306652056807
0.9522884726532347
0.3200899579061565
0.3336715926114121
0.5626511508314065
0.729545477108455
0.04078995840888916
0.8237304601677586
0.032095968459148326
0.03286087120641137
0.031050612395003525
0.314950016548358
0.030381783935108063
0.58602129589581
0.7032176149011398
0.2954854909333593
0.28003580775011444
0.6985355876189515
0.7075785427368235
0.294153776479673
0.3399825224218616
0.6503238889512355
0.6505663370368151
0.6523886555937431
0.6877004554445283
0.7632632660255871
0.9732352246542089
0.02177660734966816
-0.001132941232786206
0.02152169694257095
-0.0011087678978338607
0.9768926312103006
0.9784959360024735
0.3431719430647037
0.9738249305144223
0.2571103454652078
0.34455642239559364
0.9836905687932054
0.025472757462444567
0.9753942670942067
0.982056989583118
0.026958816137320457
0.9818946154634148
0.29652564155911704
0.9618301863776064
0.9745564466393088
0.29227560193333557
0.006799123262650422
0.0050877059263198954
0.022804514568052343
0.9739878174065697
0.9763760728953412
0.6967364387898928
0.9951031454287096
0.21335073374639613
0.0006157681306749633
0.6727846821365737
0.31946109931314504
0.3213221184033466
1.0189561150373405
0.024616795786957545
0.6874661917427873
0.20133640247932505
0.8057316006903633
0.7903073591680359
0.7909628684839686
1.0112698785899892
0.6719358360679385
0.00404193296735471
0.9943408229993896
0.993501410849876
0.15653161209199973
0.3540322188636537
0.20846849196034506
0.9952773523990216
0.004203913652693423
0.8488352561793042
0.31895030995598644
0.1404794636565149
0.344139578908395
0.013959171630063867
0.1630534802050676
0.9905353460134753
0.9874809381327139
0.14643714506077862
0.2149770178566919
-0.0037320664142276275
0.4481531393423986
-0.005505365328658969
0.40693688654692983
0.2161786218469145
-0.005019127820011978
-0.0023211711363794628
0.4224803476738855
0.43525170520095996
0.42333828532229223
0.5717914804406675
0.573858111913646
0.0029816921149465425
0.5526949082767902
0.0019535250959540488
0.6743135650853807
0.15025562609237764
0.6051316860258253
1.0024777519827546
0.7778615571930326
0.1870709936063678
0.7737661222610377
0.20657364848813636
0.22536912253994318
0.7846349593342341
1.0000126952463995
0.00029475174709687254
0.15492506438562378
0.8359441860974155
0.1537333127039012
0.34064338842199177
0.610265885722415
0.8044710702104931
0.1426279790432018
0.414553896233965
0.41697073283738845
0.5971417901048446
0.5831231020194679
0.5809082471850756
0.02316645437892581
0.6556458936834366
0.15133646959388838
0.8400133798969724
0.8361990041295896
0.5723643016128235
0.4197027125286194
0.43060802120409025
0.001981259505122998
0.5764972055073824
0.8342655624833611
0.15926028128518407
1.0103383500304346
0.21949861254437072
0.5726471996604133
0.6553104919769276
0.424653499515868
0.8417006651456076
0.5697548524340454
0.9994268613251054
0.4573832909844825
0.985805616312187
0.9841208154446291
0.8733594315580487
0.8523187882458697
0.9555938325452273
0.01039137646656257
0.4305924622674666
0.6861336363266365
0.5674569698567402
0.6631198746748593
0.39445751341343693
0.12200636473640204
-0.0025833610298940106
0.4510446405591362
0.21300811060774472
0.8180101580530638
0.5468595887460171
0.447546408497919
0.4509830920789067
0.8425841736419531
0.8471801897506908
0.1574895133933638
0.14669057205896838
0.8459277712745691
0.42157288186717484
1.0003435537098784
0.1483893505676725
0.8837342277897615
0.8865650304651232
0.37297009959358846
0.9033071457424158
1.007629595857679
0.1397721989007309
0.17353913864937495
0.6574925394445407
0.3373642718305346
0.6546039421114774
0.6677157828526832
0.10194411790605575
0.6422887897849167
0.35269689982021907
0.3518405377085172
0.006152493438872081
0.4761809819090329
0.2765810170639206
0.7113490541714375
0.7381630020731066
0.35541545307086964
0.8562045774798418
0.6444906383444636
0.6422253093543725
0.623549484965132
0.007404860256172941
0.009633536535046892
0.1645715122002829
0.8013864514805057
-0.00609213595598479
0.9140547201827176
0.902390674766246
0.8284186656180508
-0.004871886009659742
-0.007058991418898019
0.1938866765056177
0.3598145378235629
-0.0022620308117319516
1.0021014549632932
0.34812076762133964
0.8697656632744495
1.0013875923281967
0.8527643344083813
0.14247973015359583
1.0098500692472343
-0.004070787670903385
0.12036429009913817
0.9947326229223851
-0.0017598831159723208
0.3264765713159067
-0.00045448269391376133
0.6754526518956214
0.00399623088491921
1.0041214687032998
1.0065317740008688
0.1306456140895808
0.4951482576411556
0.17506261272142815
0.9981225711305904
0.8672450898377949
0.9998406689858736
0.35883253680326793
0.999058168942821
1.0048791371791546
0.14626722396437955
0.10552731721469659
3.266350948837331e-05
0.3118032237679498
0.6323441816411093
0.588789557255532
0.41164249459038926
0.5537113175025729
1.006190854683008
0.2569908210845973
0.5676775276961175
1.0015453610173846
-0.0005700722227035863
-0.003856971804480351
0.2093587987487863
0.4121749005507538
0.5683120237358721
-0.002553289497173713
0.9052863353248859
1.0105636161156326
0.8858350470775002
0.10519199279574387
0.8969688448388661
0.8877503689277914
0.6178485462911631
0.09926575831524084
0.8795430505398308
-0.0027655350401225667
0.3022533618905436
0.002428647505218729
0.9128818847591365
0.08286303728810046
-0.0030106466072411216
0.5743694970505291
0.5439180539677504
1.0076766025484143
1.016369879209292
1.004439071151944
0.0014601329948179566
0.44005654843823255
0.6527345422285115
0.6556393543146125
0.6573893561135578
0.34192906248430677
0.3380920292075849
0.347333814884917
0.932666978976725
1.0343991662605514
0.996930554911761
0.9934180910894045
0.9580065755000691
0.6864223141359785
0.733058728958282
-0.0038509107729462005
0.06918206770429278
0.7660559749447219
0.6881194404278448
0.26949083405944024
0.873018727339001
0.09986376108301988
0.09165136314198516
0.6973102201226336
0.603852941263547
0.4381563357237527
0.9981167401735175
1.0029783106899959
0.7518450203005426
0.11070927566189641
0.9193480587144399
0.2360961947657953
0.945246560997586
0.0641802061285867
1.0017614323082928
0.0018850549919607578
0.38298352287088777
0.6052224991087553
0.3766962185360205
0.8331095955400077
0.05284041195130382
0.580744994693126
0.3781884987907706
0.8120105359178511
-0.001993284234067196
-0.004908118158478172
0.19056958548639127
0.19702406966389552
0.06658417427295468
0.1248995681304404
0.9299869588216877
0.8075170500496817
0.18568060122013827
0.7681170281168916
0.23147825889765924
0.9076289638545971
0.8821319950078165
0.8800676501416949
-0.008545527751566242
0.9302179520356936
0.36736135894142125
0.24289484094119085
1.0022917233821742
0.19359133407063964
0.5489167823326052
0.6961432311420221
0.5935316965113765
0.6318002599830622
0.048686505464272126
0.9403489675887684
0.9393793013818058
0.07411872181453658
0.6984119202476696
-0.008787900702809406
1.0084057731637905
1.0055101575919014
0.04280422330977949
0.06259223256033655
0.8821027982137373
0.2618318383397091
0.9395463340260755
0.4652722389197515
0.8396227245327356
-0.00011975078429400009
0.6176799740245754
0.37146069306381235
0.3788872817537311
1.0021806064358811
-0.0031302972172860106
0.5591703035468986
-0.008720096458850203
0.41365119799306466
0.07431697426284252
-0.0018203955551882671
0.257376776728257
0.6122214755730567
0.721698542233527
0.7585662996632241
0.9349113789381072
0.05974845896788312
0.26694772517897486
0.21318455953200952
0.7432682230739951
1.006199025258692
0.24513741975740289
0.08343523656637845
0.21538044263634418
0.06324660721820158
0.9126660596506158
0.05760821904311367
0.22764587294102365
0.7629086816001119
0.7623944772423349
0.7738892791009376
0.411982248228264
1.0098354619471157
0.39121679762467515
0.9029699343808015
-0.0026640319714910125
0.05932297664099952
0.047885002893844175
0.5849706738047429
0.0862146935958397
0.0022148215599869076
0.06049590552769108
0.0815241293283374
0.4240467925759476
0.557478232458994
0.03531936248754775
0.21806573230708556
-0.0017926062440877496
1.0011021358288386
0.9027872061405818
0.4332459560219391
0.5594447681585131
0.6092052367946965
0.9221638964304514
0.0630191264691974
0.05852086602159941
0.9987044509770088
0.03779822172665386
0.508619318420444
0.3448530288477267
0.1283975791438231
-0.001943089652703592
0.7670543962428941
0.9472250754032513
0.1659219000246269
0.1482010097009784
0.8240520417886089
1.0028644820103392
0.04876517795354569
0.9292043652177647
0.9293614583625336
0.45151999537632925
0.4488632500556654
1.0016922224710016
0.22906508158637884
0.33643477866543436
0.3923399534269976
-0.00010742309341557693
0.9592070650141525
0.9596198313030795
0.24736885501799427
0.5830653335779212
0.8056657671034984
0.8070635102843676
0.20261946565379013
0.8077609526120033
0.25780056764696735
0.8574767170657
0.8585971936361144
0.6011212844905258
0.8761436744239275
0.6029107434315653
0.06315715601765362
0.9340192857068238
0.40314762720889386
0.597678013958751
0.3916319293481487
-0.010239323131384585
0.31930011530616903
0.058495378183808795
-0.0017447543821225461
0.5614935710992519
0.13399742990352873
0.23503553716196246
0.0866046338421412
0.7790211011596542
0.8532306362345847
0.9695312296873496
0.5731355251738723
0.0035598668269205417
0.42430777013485294
0.08740671368371031
0.9996268273135624
1.0011562480938931
-0.0025550436971121786
0.057549818995534095
0.9359900475661029
0.0005776123265833342
-0.007305273268374846
0.2604647728654838
0.7319068082670933
0.44098681712834886
1.004082078132593
0.2603777611650647
0.7958663594216776
0.22064129550294803
0.7743954804437974
0.2173963839381003
0.9787446915013037
0.0024661688172755956
0.41989295066549537
1.0023565090286153
0.9513020558813388
0.05106626035812756

SCALARS Omega double
LOOKUP_TABLE default
-7.722152570741716
-1.3340448160221212
8.399651603609854
15.930434419560797
36.297881003285895
-6.419265278307423
2.2374601177220383
-4.890987733573182
-0.6502785643299687
1.8448326778684003
-0.2255937759329485
-1.2180916392611305
0.6462378876440599
1.778439304286393
0.2860664955413152
0.9146141319817299
0.6538564740275534
0.9121292509739607
2.0439238617595343
-0.22542729462542135
1.7402362024407776
1.3819645627421715
-1.0757363229344987
0.45078032431285303
1.1716977340819434
1.027667238234451
0.5681556225480213
-0.030503370164945472
0.36828381612762534
1.583286885515463
1.100876414594973
-0.123480656066886
1.3455052031576389
0.8239880550385843
0.4399619275756856
1.4897664471787035
0.9113397689730212
0.4938172425474379
1.6723912456366956
0.8250509031930798
1.6570069100573857
0.8459680426555647
0.38103197635258923
0.49251820406512836
1.1642695692750882
1.0042024250503288
2.6986084684480933
0.5254453138960674
-0.9034209849080399
2.48031301504866
1.0965612345886757
2.4239716721036038
9.992980317777485
-6.983464725332688
0.04459642079915251
1.7209513907793028
1.0763540053096727
-0.04727008710396126
-0.28785647482338245
-1.4783159091172666
-2.3419726908636833
-2.2761162181121444
-0.5928345193612533
-1.3621624379132247
-1.4179963025360927
0.05608193376887507
-1.0641807997060047
-0.4152810925514076
-1.2048393194285416
-0.9831955707633848
-0.2752265740226212
-0.894256860224778
-0.5446023944229544
0.31036322920224735
-2.2613849556842966
-0.5986150799148671
0.676917498565178
-1.8351458897227924
-0.5364495797610213
0.11368098483727664
-1.283240059152699
-0.851296242855652
-0.20358177644354286
-1.1753689379406542
-1.0152543627424266
-1.721145166979122
0.13078998271404324
-0.4630238341668487
-1.273852679143865
-1.4136218978880204
-0.8970101377731856
0.9476201211206526
-1.8341116429522624
-1.6014981424052799
0.3099983177990874
-1.06797216178482
-1.3000223398332085
0.10051831416948571
-0.3757559135115897
-1.609417114620719
-1.6111286920367456
-0.250964752265593
-2.194510253630254
-0.49284458956057015
-2.1786484099472543
-0.39342484926336874
0.15322224526974418
-1.9704023641639485
-1.781662235022579
-0.8385029159248178
0.7392332578588848
-4.571232269140187
2.6533928163419596
0.32260458388671026
-0.03500128367916377
-0.8574982067342061
1.6329108810095176
-5.933719101918184
-2.408604579173562
-42.4716255633054
-0.06640605487836028
0.0190833212441783
0.0038246287799842443
-0.01608662164263525
-0.007017252028422191
-0.027427504325665816
0.006488520988120841
-0.35018659918265815
-0.33547907116279574
0.6923147532834137
0.6642197605763135
-0.8925128570695224
-0.6253238397116511
-0.6183504987837053
-0.7688608061008728
-0.5366467557253326
1.1026787339423982
0.7504415169764671
0.7304772038151739
1.0241428910613068
1.9196063386199005
1.1580777409791354
-1.1412024288472284
2.174633342372303
-1.9258251348996027
-2.2943845626059796
-2.401562951832753
3.142723522137007
2.5128835351345504
2.6592473463628865
-3.4492342150814124
-2.568539540964933
-2.5694588149401953
-2.3987462142673883
2.589259504778795
2.1754612749037165
2.776024741048561
2.0589967775411258
3.324724017101327
-2.941483596016976
-1.7740060510475801
-3.5697254858229255
-3.885485296840249
-1.3703875568292951
-0.025124049361493084
0.0628361885905073
-6.71942765318845
-5.073300363518143
4.449610690097715
-4.881060580986203
4.461069123332848
4.2094042809068215
-0.6065731817951624
-5.136234237115615
0.019655062097066044
0.013931454359245003
0.00452795576736332
0.019837377898735353
0.021465948355439766
-0.026734576285873897
0.012024353827003741
-0.013857424589728337
0.0013938026243496822
0.00736621518137492
-0.004656033972889441
-5.595581498957542
5.70173631794877
7.323132489835474
-6.301877316674285
6.410192018412227
6.633387032439241
5.801774745057886
-6.0908721138586435
5.680964938039456
5.831379857915696
-6.177366466884206
-5.389929696028045
-6.566139713476427
7.350009447955017
6.190600141486898
5.983943810480954
-0.0034362536311371285
13.609114191588835
6.838728810081674
-6.424695416359875
0.5643446386988499
1.3391385622960446
-0.42154772860863876
-5.917034781159417
-1.84963385779784
-6.886334079097042
0.5245729271889691
-0.5093192673788615
-0.4714537987910859
-0.3824839238989721
0.20866402333385245
0.3853309764569643
-5.7956621441610805
0.024841877367948018
7.014614012680402
0.2330813134562425
-0.2515451173731423
-0.31709009552723955
0.4863397854839663
5.981332016774979
-0.31870195065065354
-0.21675049049689032
0.04542969991528403
0.5558715535998205
-6.5342584522067675
-1.5670486985069307
-6.979901434566979
-6.955619380177187
-7.4620647606814465
-0.34437734471412434
-7.411088106021191
-4.54544831687223
0.6443982210061268
-0.5605150906202324
-0.5844327892587013
0.43012956012500536
0.6276556870920122
-0.4541596786680195
-0.21974225476950993
0.12979302534108583
0.13950246925764256
0.23208337485479794
0.3629331506477408
1.17083231801376
7.3642337789386465
-7.951215889380402
-10.031081690925609
-7.312116352352326
-10.346299858348003
7.7554103452218754
8.503045285280491
-0.19461649641544523
8.257047622448018
-0.6542968108602918
-0.3323585067302378
8.307136803700326
-6.843248287862922
9.359467792082068
7.501656181215714
-7.464927035262249
7.001192913261181
-0.41151423638014134
6.416269240129556
8.266985362943197
-0.420418961598306
-10.568222900801628
-11.158998768549838
-8.83621354342241
7.924834158899833
7.193019416134792
-0.8850052397327631
8.475422088626477
-1.1480858570683576
-10.621673599502694
0.3357873725028022
-0.30282311346943086
-0.42050249069079
23.57169161841738
-6.973137422140174
0.5541801802603218
-1.427622729788749
1.7199145511587735
1.1061108399554087
1.2196307574446905
10.657805875553434
0.6510939367233909
-10.074474533048573
10.87155328027402
8.611446324293128
-1.5498150370215862
-0.10481231956762106
-1.2522644690240794
9.298003652627491
-8.706465284777146
2.483725724129695
-0.3101365238073955
-2.6453948176989313
-0.4859055193113348
-7.816974171618198
3.3307996584862636
9.92943013631696
7.549188660944975
-2.6268741075763056
-1.2162006548333866
-11.863344439313131
-0.030854515245338564
-10.49871692440456
-1.4272307060704053
-1.14091176195013
-10.840600238641786
-10.703450091033062
-0.07706755454918242
-0.051396480164977484
-0.020639177065098012
0.08842279316704614
0.06624111557279402
-9.930534916183213
0.6591899248952425
-11.656017300320771
0.39256694171558965
-2.4208758701356916
-3.9931853995901627
12.195687493429684
1.0379612792335915
-1.5412098380133537
1.0637465642735877
-1.0579285195050494
-1.0266158767414382
1.1469331669870346
10.566033200743178
-8.871666799285547
-2.3763523231558765
2.1568262256679587
-2.091936263046321
-0.1448628883800738
0.09140249505166805
2.3542499549913973
-5.418474383988327
-0.04585249043733028
-0.0383066714653368
0.08209687409586726
0.0804242309107791
0.01488614079414271
-7.353422512392921
-8.053202621508424
-2.415491310612416
2.2136981964490023
1.9598152786108658
0.060283568312480044
-0.05613744449821269
-0.06318069763561256
-11.724982724415586
0.07731995893857042
1.727874670756771
-2.1493277844021796
12.11935917833092
-1.1426746238872056
-0.10297807223690379
0.21627998432644668
-0.03368439591527395
2.3618588632542328
0.09701859272058522
11.214684199886122
-0.025485996506862625
8.629675470686063
7.892885345335831
3.197670540273648
3.711976974421261
4.8831103648543746
-10.267267980382154
-0.8312344421754573
0.276341722395082
0.06954017513428734
0.2705288337705835
-0.2442580242473817
-3.1829946546549572
-10.586432803547762
-0.05230637604915582
0.6664338769530863
1.776462369865011
0.037731337789102086
-0.017568501059329538