# vtk DataFile Version 1.0
2D Simulation C++
ASCII
DATASET UNSTRUCTURED_GRID
FIELD FieldData 1
NODES 1 2 int
715 1308

POINTS 715 double
0.0 0.0 0.0
5.0 0.0 0.0
5.0 1.0 0.0
0.0 1.0 0.0
0.10000000149011612 1.0 0.0
0.20000000298023224 1.0 0.0
0.30000001192092896 1.0 0.0
0.4000000059604645 1.0 0.0
0.5 1.0 0.0
0.6000000238418579 1.0 0.0
0.699999988079071 1.0 0.0
0.800000011920929 1.0 0.0
0.8999999761581421 1.0 0.0
1.0 1.0 0.0
1.100000023841858 1.0 0.0
1.2000000476837158 1.0 0.0
1.2999999523162842 1.0 0.0
1.399999976158142 1.0 0.0
1.5 1.0 0.0
1.600000023841858 1.0 0.0
1.7000000476837158 1.0 0.0
1.7999999523162842 1.0 0.0
1.899999976158142 1.0 0.0
2.0 1.0 0.0
2.0999999046325684 1.0 0.0
2.200000047683716 1.0 0.0
2.299999952316284 1.0 0.0
2.4000000953674316 1.0 0.0
2.5 1.0 0.0
2.5999999046325684 1.0 0.0
2.700000047683716 1.0 0.0
2.799999952316284 1.0 0.0
2.9000000953674316 1.0 0.0
3.0 1.0 0.0
3.0999999046325684 1.0 0.0
3.200000047683716 1.0 0.0
3.299999952316284 1.0 0.0
3.4000000953674316 1.0 0.0
3.5 1.0 0.0
3.5999999046325684 1.0 0.0
3.700000047683716 1.0 0.0
3.799999952316284 1.0 0.0
3.9000000953674316 1.0 0.0
4.0 1.0 0.0
4.099999904632568 1.0 0.0
4.199999809265137 1.0 0.0
4.300000190734863 1.0 0.0
4.400000095367432 1.0 0.0
4.5 1.0 0.0
4.599999904632568 1.0 0.0
4.699999809265137 1.0 0.0
4.800000190734863 1.0 0.0
4.900000095367432 1.0 0.0
5.0 0.8999999761581421 0.0
5.0 0.800000011920929 0.0
5.0 0.699999988079071 0.0
5.0 0.6000000238418579 0.0
5.0 0.5 0.0
5.0 0.4000000059604645 0.0
5.0 0.30000001192092896 0.0
5.0 0.20000000298023224 0.0
5.0 0.10000000149011612 0.0
4.900000095367432 0.0 0.0
4.800000190734863 0.0 0.0
4.699999809265137 0.0 0.0
4.599999904632568 0.0 0.0
4.5 0.0 0.0
4.400000095367432 0.0 0.0
4.300000190734863 0.0 0.0
4.199999809265137 0.0 0.0
4.099999904632568 0.0 0.0
4.0 0.0 0.0
3.9000000953674316 0.0 0.0
3.799999952316284 0.0 0.0
3.700000047683716 0.0 0.0
3.5999999046325684 0.0 0.0
3.5 0.0 0.0
3.4000000953674316 0.0 0.0
3.299999952316284 0.0 0.0
3.200000047683716 0.0 0.0
3.0999999046325684 0.0 0.0
3.0 0.0 0.0
2.9000000953674316 0.0 0.0
2.799999952316284 0.0 0.0
2.700000047683716 0.0 0.0
2.5999999046325684 0.0 0.0
2.5 0.0 0.0
2.4000000953674316 0.0 0.0
2.299999952316284 0.0 0.0
2.200000047683716 0.0 0.0
2.0999999046325684 0.0 0.0
2.0 0.0 0.0
1.899999976158142 0.0 0.0
1.7999999523162842 0.0 0.0
1.7000000476837158 0.0 0.0
1.600000023841858 0.0 0.0
1.5 0.0 0.0
1.399999976158142 0.0 0.0
1.2999999523162842 0.0 0.0
1.2000000476837158 0.0 0.0
1.100000023841858 0.0 0.0
1.0 0.0 0.0
0.8999999761581421 0.0 0.0
0.800000011920929 0.0 0.0
0.699999988079071 0.0 0.0
0.6000000238418579 0.0 0.0
0.5 0.0 0.0
0.4000000059604645 0.0 0.0
0.30000001192092896 0.0 0.0
0.20000000298023224 0.0 0.0
0.10000000149011612 0.0 0.0
0.0 0.10000000149011612 0.0
0.0 0.20000000298023224 0.0
0.0 0.30000001192092896 0.0
0.0 0.4000000059604645 0.0
0.0 0.5 0.0
0.0 0.6000000238418579 0.0
0.0 0.699999988079071 0.0
0.0 0.800000011920929 0.0
0.0 0.8999999761581421 0.0
0.7496038675308228 0.5164291858673096 0.0
1.3451675176620483 0.5190238952636719 0.0
1.9462687969207764 0.4963642954826355 0.0
4.456614971160889 0.5060901641845703 0.0
3.864220380783081 0.4866538345813751 0.0
3.249823808670044 0.482722669839859 0.0
2.6500000953674316 0.5 0.0
0.3810288906097412 0.399004191160202 0.0
2.308779239654541 0.3797946870326996 0.0
1.0499999523162842 0.6625000238418579 0.0
1.644740104675293 0.6598879098892212 0.0
4.150000095367432 0.3375000059604645 0.0
3.555316209793091 0.3343118131160736 0.0
2.9446933269500732 0.3401789665222168 0.0
1.6342840194702148 0.3290160894393921 0.0
1.0591840744018555 0.33908534049987793 0.0
2.9654481410980225 0.6753292679786682 0.0
3.5534629821777344 0.6835107207298279 0.0
4.153462886810303 0.6835107207298279 0.0
2.2139804363250732 0.6805098056793213 0.0
0.4914395809173584 0.6739721894264221 0.0
4.691666603088379 0.6916666626930237 0.0
4.691666603088379 0.3083333373069763 0.0
2.4872219562530518 0.7236665487289429 0.0
0.6240421533584595 0.2677222192287445 0.0
2.0697431564331055 0.2657754421234131 0.0
2.5389034748077393 0.26082900166511536 0.0
0.8147311806678772 0.7450684309005737 0.0
1.2897310256958008 0.743314266204834 0.0
1.8853894472122192 0.7450258731842041 0.0
4.382374286651611 0.23655959963798523 0.0
3.910269021987915 0.25668570399284363 0.0
3.1838724613189697 0.25397706031799316 0.0
1.398239254951477 0.2614254057407379 0.0
3.201760768890381 0.7385746240615845 0.0
3.8017609119415283 0.7385746240615845 0.0
4.39177942276001 0.7466779351234436 0.0
0.25301694869995117 0.7458874583244324 0.0
2.7258167266845703 0.7600342631340027 0.0
0.84163498878479 0.2263137847185135 0.0
0.22429518401622772 0.22429518401622772 0.0
2.7605957984924316 0.22504857182502747 0.0
1.8330284357070923 0.2150011658668518 0.0
0.2192869633436203 0.5323538780212402 0.0
4.7908525466918945 0.5038931369781494 0.0
2.466000556945801 0.5376454591751099 0.0
3.7061264514923096 0.17723728716373444 0.0
3.3929696083068848 0.20266839861869812 0.0
1.4905184507369995 0.7937026619911194 0.0
1.2104878425598145 0.20361483097076416 0.0
3.9895122051239014 0.7963851690292358 0.0
3.389512300491333 0.7963851690292358 0.0
0.5652223825454712 0.5070380568504333 0.0
0.44509074091911316 0.19716571271419525 0.0
2.1318352222442627 0.5042122602462769 0.0
1.548349142074585 0.4954715371131897 0.0
3.050636053085327 0.5004673004150391 0.0
0.9511125087738037 0.498258113861084 0.0
3.651650905609131 0.5045284628868103 0.0
4.248488903045654 0.4980509281158447 0.0
1.1537858247756958 0.49593159556388855 0.0
4.050199031829834 0.49993085861206055 0.0
3.464722156524658 0.509624183177948 0.0
1.749653697013855 0.5001751780509949 0.0
2.851828098297119 0.5057260394096375 0.0
2.359710216522217 0.1888567954301834 0.0
2.0499017238616943 0.8199846148490906 0.0
0.6430503129959106 0.8181284070014954 0.0
4.560274600982666 0.1724673956632614 0.0
4.55863094329834 0.8299665451049805 0.0
2.321284055709839 0.8242537379264832 0.0
4.815218925476074 0.8345447778701782 0.0
4.837246894836426 0.16590170562267303 0.0
0.9682294130325317 0.8331464529037476 0.0
1.730908751487732 0.827606201171875 0.0
4.220076560974121 0.17516615986824036 0.0
3.02066969871521 0.18326662480831146 0.0
1.5634372234344482 0.17044226825237274 0.0
3.035303831100464 0.8294908404350281 0.0
3.627507209777832 0.8360387086868286 0.0
4.2312469482421875 0.8315803408622742 0.0
4.618130683898926 0.5361976027488708 0.0
0.40311703085899353 0.8369210362434387 0.0
1.1473191976547241 0.8458209037780762 0.0
4.052680969238281 0.15417908132076263 0.0
2.020958423614502 0.6394158005714417 0.0
0.662188708782196 0.6447370648384094 0.0
4.5115838050842285 0.3538685142993927 0.0
1.0221220254898071 0.15309639275074005 0.0
0.3837882876396179 0.5515117049217224 0.0
3.548090934753418 0.15800617635250092 0.0
1.4348299503326416 0.6465393304824829 0.0
3.765170097351074 0.3534606993198395 0.0
3.3348300457000732 0.3534606993198395 0.0
1.2546738386154175 0.36384353041648865 0.0
3.945326089859009 0.636156439781189 0.0
3.3412928581237793 0.637225866317749 0.0
2.1904795169830322 0.17066854238510132 0.0
0.16392111778259277 0.38331863284111023 0.0
2.87723445892334 0.8265392184257507 0.0
4.8459792137146 0.6499902606010437 0.0
4.845625400543213 0.34837812185287476 0.0
2.771622896194458 0.38129922747612 0.0
4.5222978591918945 0.6578375697135925 0.0
2.604464530944824 0.8240283727645874 0.0
1.8544400930404663 0.3751189708709717 0.0
0.8566747903823853 0.38255012035369873 0.0
2.2932615280151367 0.5369129776954651 0.0
2.620572805404663 0.6496497392654419 0.0
0.7172287106513977 0.1490369737148285 0.0
0.1410960853099823 0.8303417563438416 0.0
1.7142322063446045 0.142862930893898 0.0
2.6314175128936768 0.14492936432361603 0.0
1.9832650423049927 0.1408119648694992 0.0
2.445650577545166 0.370038241147995 0.0
2.885042667388916 0.1455758661031723 0.0
0.13937503099441528 0.6546638011932373 0.0
0.9110832810401917 0.6349053978919983 0.0
3.088575839996338 0.3613528311252594 0.0
4.296638011932373 0.3563385307788849 0.0
1.1930090188980103 0.6355591416358948 0.0
1.788455843925476 0.6387236714363098 0.0
4.006990909576416 0.3644408583641052 0.0
1.4459187984466553 0.39242905378341675 0.0
4.354081153869629 0.6075709462165833 0.0
3.7540812492370605 0.6075709462165833 0.0
3.1591691970825195 0.6018876433372498 0.0
2.7615907192230225 0.6205627918243408 0.0
2.36276912689209 0.6735464930534363 0.0
1.3681535720825195 0.8630191683769226 0.0
3.8318464756011963 0.1369808316230774 0.0
3.275517463684082 0.10712132602930069 0.0
0.5630941987037659 0.12814241647720337 0.0
1.3237862586975098 0.10638008266687393 0.0
3.2733232975006104 0.8705052733421326 0.0
3.8733232021331787 0.8705052733421326 0.0
2.0396511554718018 0.38928428292274475 0.0
2.2168734073638916 0.8508136868476868 0.0
0.5163488388061523 0.3409615159034729 0.0
0.6547463536262512 0.3955095112323761 0.0
1.9480526447296143 0.8710126876831055 0.0
4.689375877380371 0.13700176775455475 0.0
4.698264122009277 0.8675068616867065 0.0
0.7578787803649902 0.8698469996452332 0.0
2.479548454284668 0.13692785799503326 0.0
2.4562506675720215 0.8735422492027283 0.0
2.171211004257202 0.3573116958141327 0.0
3.5117530822753906 0.853193998336792 0.0
4.107914924621582 0.8658969402313232 0.0
2.640726327896118 0.354434996843338 0.0
4.346996307373047 0.1279495507478714 0.0
0.3128283619880676 0.11246757209300995 0.0
0.136248379945755 0.12152919173240662 0.0
4.453908443450928 0.8629162907600403 0.0
1.6064813137054443 0.8679171800613403 0.0
0.3380795121192932 0.6626779437065125 0.0
0.5102446675300598 0.875635027885437 0.0
0.7425088882446289 0.2989330589771271 0.0
3.1349449157714844 0.10448489338159561 0.0
1.3287748098373413 0.6181886196136475 0.0
3.871795415878296 0.38215625286102295 0.0
3.229135036468506 0.3810797333717346 0.0
0.28971707820892334 0.8759857416152954 0.0
0.9214505553245544 0.11992674320936203 0.0
1.9219478368759155 0.6237660050392151 0.0
1.530794620513916 0.29603153467178345 0.0
3.072223663330078 0.7044162750244141 0.0
3.6722235679626465 0.7044162750244141 0.0
[...]
POINT_DATA 715
SCALARS Psi double
LOOKUP_TABLE default
0.0
0.0
1.0
1.0
1.0
1.0
1.0
1.0
1.0
1.0
1.0
1.0
1.0
1.0
1.0
1.0
1.0
1.0
1.0
1.0
1.0
1.0
1.0
1.0
1.0
1.0
1.0
1.0
1.0
1.0
1.0
1.0
1.0
1.0
1.0
1.0
1.0
1.0
1.0
1.0
1.0
1.0
1.0
1.0
1.0
1.0
1.0
1.0
1.0
1.0
1.0
1.0
1.0
0.9158001721032135
0.854325852092592
0.7498578785700712
0.6223028345413376
0.4820038557019185
0.3391903232084109
0.2046825804594179
0.09201363926886677
0.02557375111904434
0.0
0.0
0.0
0.0
0.0
0.0
0.0
0.0
0.0
0.0
0.0
0.0
0.0
0.0
0.0
0.0
0.0
0.0
0.0
0.0
0.0
0.0
0.0
0.0
0.0
0.0
0.0
0.0
0.0
0.0
0.0
0.0
0.0
0.0
0.0
0.0
0.0
0.0
0.0
0.0
0.0
0.0
-0.0
0.0
0.0
0.0
0.0
0.0
0.0
0.02754462462037969
0.10810995130291862
0.20983794412330134
0.3116279855831181
0.4132836155866764
0.5115976334800475
0.603339288441129
0.6790504994315076
0.6418939090504204
0.5292532031751639
0.5288153781006606
0.5009439914082464
0.4988382483267952
0.4717546005248321
0.47124346616790835
0.5087321173517483
0.32320541396984553
0.3269109456854471
0.7451533095905519
0.740049611017939
0.2503861005869405
0.24434454843896367
0.2641200253288208
0.2461169248885002
0.26615801772992614
0.772189735039358
0.7650650073976548
0.7644299030790725
0.7787476761292538
0.7591651635842758
0.7685446855186429
0.20765245525607087
0.8364580842190984
0.16279959960665874
0.1650857880372003
0.157914262146126
0.8649471811319964
0.8516002385200799
0.859409211082367
0.1091713659064113
0.1417927607305729
0.13781821136556766
0.1479032645561544
0.8494771445814161
0.8422337082153459
0.8522125075104924
0.7945224698711779
0.8865305114645635
0.11964051620542707
0.11151111839927802
0.11027371220471088
0.09729436102823219
0.4661245954399778
0.49044691431009435
0.566190569657332
0.04752501630347463
0.07124724149797904
0.9138337820749538
0.07565476834444936
0.9114126080640368
0.9112226777051801
0.4990470828165755
0.07155266108745229
0.5148652741550567
0.4941032108817046
0.5040526641052417
0.5041835450026533
0.49901930063805705
0.4875819382292459
0.496771477423831
0.49113468338118765
0.5079289751401282
0.5038322706961256
0.5160590255496399
0.06618672743260884
0.9470412425592153
0.9568609906244954
0.04644891521820067
0.9470817019075763
0.9543381195297894
0.9335327399964095
0.04051163701286837
0.9540095345305956
0.9489692013359382
0.04812840245744996
0.059526917407382134
0.047631976355075475
0.9600230233082977
0.9536678126885495
0.9499837849438548
0.5421088093731523
0.9798044537640782
0.9629522751083996
0.03580458362425229
0.7160495864225087
0.7269883676490906
0.2719976763845984
0.04039728086463953
0.5322060658151097
0.033360258014826276
0.7186597820910621
0.2727437856839391
0.27451696626828065
0.2959653954564178
0.6947973625400415
0.7011809082346616
0.05239994371856034
0.29568073552341007
0.9606981139048384
0.6984068393964755
0.2629280424428938
0.32816051434768917
0.7258935552410648
0.9538219449075829
0.31752264325013935
0.3316557423834858
0.5649725599835667
0.734028733926163
0.03945748932756775
0.8230514646347494
0.030963519185132654
0.0321969206427071
0.0302124928456349
0.3127431826277976
0.02970851466742893
0.5847342534916885
0.7096009610394223
0.29166625883515906
0.2758132949256387
0.703450515899923
0.7116019819132551
0.29039115923137565
0.3379189507985413
0.6522071187242402
0.6533000029936571
0.6552577750463812
0.691150110628396
0.7679958318817206
0.9739714556982755
0.021038385850965406
-0.0003517157240101108
0.021248175559013004
-0.00034269625044463066
0.9777181858655658
0.979060709084858
0.34118585902475157
0.9743036663454332
0.2543497189070202
0.34180979005952544
0.9840451309917799
0.024625536114868042
0.9760398769406332
0.9834232652710604
0.026529825435820407
0.982428836244348
0.29404589353022537
0.963243777792461
0.9756216476410694
0.2895250713415889
0.006575545022546077
0.005576314557722138
0.022732819150254793
0.9743002525299522
0.9772551982858975
0.6958787722511767
0.9943176485662859
0.2097695762600744
0.0012926000214921883
0.6766989503350567
0.3162186332897082
0.3178078559837021
1.018682412148278
0.02392859237566002
0.6913761359822147
0.1977035673719841
0.8096503084831678
0.7944016713119131
0.794285381346868
1.0097101120059888
0.6769089881303519
0.00410908621458635
0.9943082442752601
0.9936760235986049
0.15580686058576057
0.3507666041793629
0.20504720719097555
0.9952269192254304
0.0040834332433414425
0.8522151520871527
0.3150504949473237
0.13802582521778167
0.3426083242423738
0.013709718095129721
0.16253365808910494
0.9903679503713989
0.9885683850054761
0.14377448174733157
0.2113368363674413
-0.002899456433042747
0.448063792677333
-0.004884524404227819
0.40572783383593575
0.2123471430980594
-0.004758750578428614
-0.0016461399501124683
0.4203891860706429
0.43389024950368626
0.421805547438593
0.5755158869644528
0.5759459742679284
0.0030702690091523577
0.5535781730758139
0.0019492826477173074
0.6783495084402956
0.14713111277457344
0.6035968408173409
1.002171877052075
0.7816369889709631
0.18476424946719958
0.7781762491298279
0.20225842783245027
0.22159771226301578
0.7891069741097467
0.9998323892653295
0.0007086382357386308
0.15124607429137987
0.839944916616519
0.14967780321670168
0.3392544156529654
0.6120217589075476
0.8084284177008053
0.13783565165961062
0.4134671391316686
0.417311936468918
0.5989765237564169
0.5849188728678638
0.5819264704335422
0.022203128535828023
0.6545830186441821
0.14872689664903607
0.8442118591309511
0.8399965600330348
0.5752593175384885
0.41787414279322443
0.4289947511152806
0.0025357368016475194
0.5787342277872252
0.8397173062459934
0.15513384678893619
1.0093538692372392
0.21651484622942802
0.5736730810287197
0.6567693121932247
0.4224487150303575
0.8459008161481394
0.5729750770136861
0.9993559980679297
0.4576788306989071
0.9862324530994024
0.9847807033942594
0.8770928508563665
0.857842223016927
0.9562517047165169
0.009774930266777206
0.42814962910734156
0.6894316307782783
0.569681544413741
0.6669982477526166
0.3920992035710358
0.11856661868948534
-0.0020343390350663335
0.4492917361616994
0.21226032993652652
0.8225160173001164
0.5486035827082232
0.4465128942692259
0.4498602328076835
0.8466117816132173
0.8540240248336204
0.1534038163896521
0.14270861978074934
0.8498963688638966
0.42111786250104644
1.0000416528630514
0.14593757681614578
0.8872320273518757
0.8896331564128177
0.37069200414027864
0.905789167058867
1.006557080257679
0.13571308595174086
0.1690495496585483
0.6596894325543771
0.3349904258247803
0.6576086176800235
0.6707563539400679
0.09888022987534373
0.6455435421112686
0.3500384202987075
0.3488675849927341
0.006407164050656008
0.4760995165457589
0.2739487184819452
0.7148098226726398
0.7421811279925756
0.3532638918380051
0.8603694585388227
0.6473689690173217
0.6444730515907096
0.6249695663672328
0.007567025757891491
0.009150419396698422
0.16006446598098611
0.8053537267710803
-0.005081856929224976
0.9156986974548749
0.9053595758997385
0.8316255066171164
-0.00461218842690356
-0.00606783593330014
0.19221749201156627
0.35792291939825
-0.0016436915985958403
1.0016446979758329
0.3456623647006351
0.8723183545847761
1.0008553012927413
0.8587301951597911
0.13876519968824264
1.0087516624286013
-0.0035568929839379557
0.1179624478537975
0.9949097464394709
-0.0014774230299387091
0.3251160536170058
-0.00021882474131597627
0.6779491961571922
0.004056351733239657
1.0036103903981657
1.0060799708765535
0.12730021134777955
0.49397673980451684
0.1719790177159771
0.9979445478375523
0.8713727836674181
0.9999330177230354
0.3557427766682913
0.9991042055560281
1.0037687230481027
0.14406476323554213
0.10259703063077608
0.0001653515248322217
0.3078569311344954
0.6358982324635689
0.5879090660093662
0.41139448241148646
0.5544745215466109
1.0056427043788732
0.2562353206689003
0.5682199267581869
1.0012463492751071
-0.00033652954283372764
-0.003198824697938522
0.20622439865330322
0.40999746651651137
0.5705135266156346
-0.0024566025523929526
0.9076280940052598
1.0090425671857741
0.885718536759302
0.10229991674045442
0.9000563159087922
0.8909614334403998
0.6206166001974222
0.09599693295217643
0.8825943621175474
-0.002472570516202049
0.2996327144322221
0.0025947385514862938
0.9157383960537004
0.08015503726991183
-0.0026941086367682694
0.5758930963149532
0.5420626225312501
1.0067794995887378
1.015632121243851
1.0037080839675319
0.0014529155706876269
0.4395553488712357
0.658157613349179
0.6606594186716647
0.6608805181064534
0.3384865506949856
0.33469361608592874
0.3442776005990775
0.9351998741229841
1.0347045341588128
0.997032352576117
0.9936900674690817
0.9588933845707697
0.686161538855172
0.7378377416567968
-0.0032458023303676567
0.06739281581189964
0.7703258819670414
0.6912662934279987
0.2652434842504465
0.8727493519281482
0.0972837891263636
0.08908113257928231
0.7016752890603976
0.6056546512517191
0.4379304281471611
0.9981320246701401
1.0025515757106522
0.7547532958179943
0.10767861930744456
0.921936815279531
0.23269535217173495
0.9463890878051807
0.0626881255710268
1.0012765847859821
0.0018753859375243418
0.3817337289570821
0.6070211860610703
0.37495262103466925
0.8338490717720223
0.050952913058556974
0.5834292057454677
0.3768067309127155
0.8163523203572544
-0.0018402557627104777
-0.004478441734129615
0.19003082281455758
0.19272689772985846
0.06460100603512281
0.12205386858880214
0.9344860391211706
0.8123223380569757
0.1815667479904624
0.7749066261108575
0.2271531080451078
0.9072069556168411
0.8853920854231628
0.8837670099227283
-0.0074808512117245
0.9323362903659508
0.36463647079295697
0.23971844983551846
1.001740366546449
0.19017175465266412
0.5498410850818736
0.6993336796780742
0.5955271917684973
0.6350184083529609
0.04763341185305954
0.9424671681642661
0.9412497474212166
0.07137960231663074
0.6972794270092536
-0.00801134909043889
1.0078780165156958
1.0051841030336148
0.04159873848451557
0.05972722646847845
0.8844163732526876
0.25858445175831823
0.9409931335774817
0.4641145911957299
0.8439447588271729
-0.00026460197770196545
0.620675623973883
0.36908649321534603
0.376365906883007
1.0019423125790141
-0.0029661811071264557
0.558064765302849
-0.008120279091099114
0.4130396034343154
0.07329838888070082
-0.0015624165278979908
0.25311396699443106
0.6151250903759984
0.7208855881975005
0.7630124339003326
0.9369264191008878
0.05766331179020523
0.2640580592298401
0.20871835279900694
0.7500551404041955
1.0058433788018897
0.24162258701510392
0.08142267874455178
0.21081520680183943
0.06208079759195781
0.9155526971593015
0.05570701625933955
0.2242635510275467
0.765999974936578
0.7663401411103491
0.7780036389027005
0.41170168243054384
1.0085902170869394
0.3883879785301354
0.9060501572074889
-0.0023093699503868403
0.057429720625453
0.0468883583653127
0.5868409193958981
0.08388985777936298
0.002232715101026195
0.06021092613211904
0.08152349480748244
0.4236008947649177
0.557746288870821
0.034675702992574324
0.21510075799091646
-0.0018061836879838297
1.000800123667146
0.9081724127697228
0.43276071087171
0.5606338140087259
0.611398110941379
0.9245510307460632
0.06109754542091896
0.05680270498337372
0.9987528740587216
0.03664405881548965
0.5071960650472868
0.3431233716183089
0.1252313107793594
-0.001681918803108353
0.7717563445348352
0.948948888359237
0.16187875297489826
0.14473312728825855
0.828167102421204
1.0025800512524856
0.04818513334852611
0.9316814354403851
0.9315122824834559
0.4514461951009546
0.4475726883557448
1.001448261507399
0.22565415410153306
0.33547597547416175
0.3896038823964324
-2.129405987263014e-05
0.9606668333927479
0.9612280869262777
0.24608440831082037
0.5845955359832972
0.8093986539397484
0.8113053229355685
0.2002295618163241
0.8116234050935968
0.25499410474224327
0.861276278427537
0.861828863421566
0.6053585963351227
0.8792871215338387
0.6054838962551933
0.061271963677713294
0.9371751301602546
0.4010870403272901
0.601305735898153
0.38924806550935837
-0.009708410270705264
0.31678740828455504
0.057607096820827666
-0.001462827116161962
0.5618931832987784
0.1305958406008617
0.23251466927240497
0.0864006754378537
0.7855170603522607
0.8571854888068975
0.970628027940355
0.574520228825276
0.003388297054156641
0.42223316754003026
0.08520732341975315
0.999557273961062
1.0009224488033939
-0.0020521736460675337
0.05760625243500235
0.9373706180852581
0.0005133138000811455
-0.006739332019692052
0.25646982526276624
0.7366260769334652
0.4390130773389089
1.0038910916493922
0.2559994817823907
0.8003753645628534
0.21628575152662696
0.7787815799097553
0.21341783983518559
0.9788014652317927
0.002327468955487296
0.4191063271610596
1.001916075745746
0.953009433196274
0.04955251428136398

SCALARS Omega double
LOOKUP_TABLE default
-7.69646837803943
-1.3378195913346926
8.415733790257045
15.93127321610814
36.41594758272587
-6.415542531432792
2.3263346525562545
-4.728762156364285
-0.6060536502315144
1.7278765290276796
-0.24497763614713342
-1.1235465584321913
0.5452085094218732
1.6089547474196277
0.2511576264101037
0.929581499312129
0.6587008978323946
0.9114145949648612
1.9580165152920983
-0.20659762713180846
1.672361330753282
1.3624866656083545
-0.9127176146037788
0.45564655764541906
1.1327952496585931
1.0309791367234125
0.6052061751321682
0.034734153540355375
0.3986879874130796
1.5490622190264285
1.1324328145036378
-0.050966546518301
1.3650166483809012
0.8379879398789888
0.4451988094525547
1.4228503231403113
0.8809196415306536
0.46998630316593465
1.6059649840701733
0.7981702300889094
1.624617035194459
0.8360281437494737
0.4051106470751089
0.46026997363842137
1.1271453439095938
0.9492109339962651
2.614550878279989
0.5615913568267702
-0.7705895264203254
2.4498497798131065
1.0564235340604846
2.2724674681142574
9.884172057745984
-7.1117032063728045
0.10422067553038634
1.860418363150413
1.126794407345798
-0.04199578538848366
-0.33971472948377957
-1.628926309734893
-2.4802327020571093
-2.2022207561242895
-0.5580566432611532
-1.2344858821733984
-1.385002923669838
0.014916947259323916
-1.0018357866861447
-0.405014216096951
-1.18922302040742
-0.9580440869352176
-0.2946911765395612
-0.8709133075024503
-0.518864917709066
0.26651209717614166
-2.175719402437947
-0.6268579508188681
0.6311461541662664
-1.7544470586520653
-0.5418046083748579
-0.010121158716060884
-1.2224793312813522
-0.8359087001725305
-0.2856159780862605
-1.2109555480336283
-1.0551725991922631
-1.715019339937251
0.040246349136359216
-0.5091612804652126
-1.2435967461138062
-1.3844538135915585
-0.8957621180379813
0.8837492902462543
-1.7730700392042307
-1.5474035296837283
0.29288250743205996
-1.0311769611974206
-1.2564769554175534
0.03017824845439635
-0.43282483057938614
-1.6223815895608855
-1.6350800418936289
-0.3296244484442572
-2.105383139258028
-0.47265704199617864
-2.0838908016334465
-0.4247530030284015
0.06314431606244797
-2.001918618379986
-1.8394301447189434
-0.8361789715611346
0.733393551671027
-4.582010470409893
2.646150412312613
0.3132002763038507
-0.029310476318227
-0.8572947190049824
1.648504654571445
-5.912056672912538
-2.3836693651042973
-42.52803231740683
-0.1355939356924376
0.048780204525131945
0.009605430241070138
-0.028320217566398163
-0.02384410600182616
-0.05019753105573464
0.01707254595639163
-0.373654566856099
-0.4976577431772096
1.050085385209276
0.9409401328928194
-1.1694303912201307
-0.9383299305169476
-0.9020532130037833
-1.0568807544280474
-0.7424327150088065
1.4172577681853935
1.0667785620302885
1.025760889347471
1.3855710890855566
2.1422166253595027
1.4710905595013475
-1.4871123092695195
2.562430850895889
-2.2176905130271516
-2.597419078317896
-2.723641771268657
3.7307702019800684
2.758889472811412
3.006814902222096
-3.7545506938467166
-2.9128849443862364
-2.9846585590914563
-2.797584436542547
2.926655359176811
2.512419117148335
3.039232513486126
2.0458623997949417
3.6526767935619637
-3.2509400641516826
-1.7334404876114533
-3.818070898911842
-4.119544289622408
-1.4259943115976814
-0.020697633905536226
0.13500461231728328
-6.662233781482797
-5.265307983141279
4.643991967261395
-4.979194541382918
4.693356352271692
4.438019037874015
-0.8213786061562147
-5.129857662739859
0.037734342534273414
0.01771221337898608
0.008503250774710206
0.029657434961636215
0.024743399301031796
-0.05012080634856684
0.030913760861804303
-0.028220669564374665
0.0066315259446449925
0.016613463147012127
0.003938355482246038
-5.677932808804316
5.744989785759435
7.578941594581283
-6.31044164292041
6.320363351565755
6.565536335369587
5.980227436877358
-6.083367393324309
5.77735187227604
5.8127832093813465
-6.106762157672575
-5.559482440760459
-6.598215548527703
7.25160582612898
6.188624822283353
6.009233094067367
0.0157303726431978
13.520260232731781
6.645143442046759
-6.295455096967051
0.8203416392107294
1.6611926411874534
-0.6745152426839542
-5.798802867700267
-2.098849253785518
-6.762249409244085
0.7337894546555322
-0.7370233485945926
-0.7527596511966149
-0.5757163243442516
0.3876392646686102
0.6132682482310868
-5.798025344372379
0.05509753946835725
6.918085127635987
0.4349669339100911
-0.47980697725263755
-0.4840296956182816
0.7137595960873859
5.9960056741553895
-0.4901146673464572
-0.3717198908957937
0.10988520064367836
0.8507092420610866
-6.497437410694221
-1.7054559080675897
-6.849072117583471
-6.783962030453866
-7.2833577229786
-0.5273194128354376
-7.205389596308293
-4.567540724856817
1.0002592914148385
-0.8085566216703438
-0.8425407015804647
0.6708981227012918
0.859896512883103
-0.6779191069981771
-0.3666630658933989
0.25441071172224244
0.27738066934782035
0.3991698401685367
0.5726099359751635
1.4928990169582825
7.107413902461223
-7.732804198738771
-9.422384565668104
-7.11096333259491
-9.83725147379653
7.509903575586295
8.231070028290617
-0.33587854148182306
7.94349679962942
-0.7726828270015362
-0.5063606598138365
7.967398309210136
-6.640328388243731
9.148499878885863
7.20318061379724
-7.245569254293023
6.716990787415716
-0.6191809026447802
6.3576699582250455
8.134550086034226
-0.6348585376485237
-10.227884950296728
-10.974720063408446
-8.811780464568296
7.665913500174378
7.0137963974117215
-0.9446091687963709
7.937635624323364
-1.4415893340115697
-9.925095827380272
0.5076130755014817
-0.4723858132185416
-0.6327994780183859
23.54535662001981
-6.834903126216421
0.7679008363462393
-1.787540002563171
2.0756552737211926
1.4500322676774744
1.5296054248150688
9.839071515422713
0.910560600045372
-9.693485217258349
10.4440321058184
8.301473693422444
-1.528198193591155
-0.2254168896111358
-1.5736166257510333
8.893428386352232
-8.356266205738732
2.842677755568885
-0.5083943867654289
-2.886096060304039
-0.4801791332803783
-7.5703887529880065
3.303655221164407
9.37629215544875
7.149859015886328
-2.92916367892708
-1.5234807173715543
-11.382719865890977
-0.05794566117651509
-10.018791573873207
-1.4275752087420166
-1.4806733179431364
-10.43098052159295
-10.100156111462681
-0.15230406374963898
-0.107547965331974
-0.08962129271787618
0.18270581933427146
0.13362592262183445
-9.434041292136241
0.7329931821055259
-11.245038031232326
0.606573182345231
-2.7706797173000894
-4.103517197959503
11.766109305363488
1.349657294527452
-1.8375820914882637
1.3883726519263997
-1.4613725777033097
-1.320035458778246
1.4755472183639502
9.848557766253805
-8.352227603342904
-2.692107682803971
2.4417544190754636
-2.539517356343705
-0.26853256578925777
0.17972789534126019
2.8665608439854284
-6.071227170237585
-0.10788983984081427
-0.08190935813867581
0.16546410408142379
0.15459241211260974
0.061791957370391025
-7.25948954931529
-8.066804217714635
-2.7569887354959057
2.5859738139139266
2.3294831106641336
0.13578594178034256
-0.11836843266516595
-0.12830093959512393
-11.199619460993755
0.15165317136491038
2.142479221265021
-2.507450947377494
11.549896505175655
-1.4504582511030601
-0.17909675244192963
0.23386969446348088
-0.09110178187122747
2.7255225886701644
0.15136932807267917
10.765672117865641
-0.045907462256174744
8.301118935908836
7.617181916726705
3.521229280485487
4.381037214330162
4.584760126529788
-9.911326054147779
-1.0233499111025903
0.4667361352409077
0.13302817049520196
0.4574667814399913
-0.32698394531163116
-3.558921418631519
-10.262142588081549
-0.10326248800292238
0.7020957118334867
2.161072813202956
0.07584883425998229
-0.05435461900049698
-0.0858367548003456
4.798433806598724
2.944353987171349