# vtk DataFile Version 1.0
2D Simulation C++
ASCII
DATASET UNSTRUCTURED_GRID
FIELD FieldData 1
NODES 1 2 int
715 1308

POINTS 715 double
0.0 0.0 0.0
5.0 0.0 0.0
5.0 1.0 0.0
0.0 1.0 0.0
0.10000000149011612 1.0 0.0
0.20000000298023224 1.0 0.0
0.30000001192092896 1.0 0.0
0.4000000059604645 1.0 0.0
0.5 1.0 0.0
0.6000000238418579 1.0 0.0
0.699999988079071 1.0 0.0
0.800000011920929 1.0 0.0
0.8999999761581421 1.0 0.0
1.0 1.0 0.0
1.100000023841858 1.0 0.0
1.2000000476837158 1.0 0.0
1.2999999523162842 1.0 0.0
1.399999976158142 1.0 0.0
1.5 1.0 0.0
1.600000023841858 1.0 0.0
1.7000000476837158 1.0 0.0
1.7999999523162842 1.0 0.0
1.899999976158142 1.0 0.0
2.0 1.0 0.0
2.0999999046325684 1.0 0.0
2.200000047683716 1.0 0.0
2.299999952316284 1.0 0.0
2.4000000953674316 1.0 0.0
2.5 1.0 0.0
2.5999999046325684 1.0 0.0
2.700000047683716 1.0 0.0
2.799999952316284 1.0 0.0
2.9000000953674316 1.0 0.0
3.0 1.0 0.0
3.0999999046325684 1.0 0.0
3.200000047683716 1.0 0.0
3.299999952316284 1.0 0.0
3.4000000953674316 1.0 0.0
3.5 1.0 0.0
3.5999999046325684 1.0 0.0
3.700000047683716 1.0 0.0
3.799999952316284 1.0 0.0
3.9000000953674316 1.0 0.0
4.0 1.0 0.0
4.099999904632568 1.0 0.0
4.199999809265137 1.0 0.0
4.300000190734863 1.0 0.0
4.400000095367432 1.0 0.0
4.5 1.0 0.0
4.599999904632568 1.0 0.0
4.699999809265137 1.0 0.0
4.800000190734863 1.0 0.0
4.900000095367432 1.0 0.0
5.0 0.8999999761581421 0.0
5.0 0.800000011920929 0.0
5.0 0.699999988079071 0.0
5.0 0.6000000238418579 0.0
5.0 0.5 0.0
5.0 0.4000000059604645 0.0
5.0 0.30000001192092896 0.0
5.0 0.20000000298023224 0.0
5.0 0.10000000149011612 0.0
4.900000095367432 0.0 0.0
4.800000190734863 0.0 0.0
4.699999809265137 0.0 0.0
4.599999904632568 0.0 0.0
4.5 0.0 0.0
4.400000095367432 0.0 0.0
4.300000190734863 0.0 0.0
4.199999809265137 0.0 0.0
4.099999904632568 0.0 0.0
4.0 0.0 0.0
3.9000000953674316 0.0 0.0
3.799999952316284 0.0 0.0
3.700000047683716 0.0 0.0
3.5999999046325684 0.0 0.0
3.5 0.0 0.0
3.4000000953674316 0.0 0.0
3.299999952316284 0.0 0.0
3.200000047683716 0.0 0.0
3.0999999046325684 0.0 0.0
3.0 0.0 0.0
2.9000000953674316 0.0 0.0
2.799999952316284 0.0 0.0
2.700000047683716 0.0 0.0
2.5999999046325684 0.0 0.0
2.5 0.0 0.0
2.4000000953674316 0.0 0.0
2.299999952316284 0.0 0.0
2.200000047683716 0.0 0.0
2.0999999046325684 0.0 0.0
2.0 0.0 0.0
1.899999976158142 0.0 0.0
1.7999999523162842 0.0 0.0
1.7000000476837158 0.0 0.0
1.600000023841858 0.0 0.0
1.5 0.0 0.0
1.399999976158142 0.0 0.0
1.2999999523162842 0.0 0.0
1.2000000476837158 0.0 0.0
1.100000023841858 0.0 0.0
1.0 0.0 0.0
0.8999999761581421 0.0 0.0
0.800000011920929 0.0 0.0
0.699999988079071 0.0 0.0
0.6000000238418579 0.0 0.0
0.5 0.0 0.0
0.4000000059604645 0.0 0.0
0.30000001192092896 0.0 0.0
0.20000000298023224 0.0 0.0
0.10000000149011612 0.0 0.0
0.0 0.10000000149011612 0.0
0.0 0.20000000298023224 0.0
0.0 0.30000001192092896 0.0
0.0 0.4000000059604645 0.0
0.0 0.5 0.0
0.0 0.6000000238418579 0.0
0.0 0.699999988079071 0.0
0.0 0.800000011920929 0.0
0.0 0.8999999761581421 0.0
0.7496038675308228 0.5164291858673096 0.0
1.3451675176620483 0.5190238952636719 0.0
1.9462687969207764 0.4963642954826355 0.0
4.456614971160889 0.5060901641845703 0.0
3.864220380783081 0.4866538345813751 0.0
3.249823808670044 0.482722669839859 0.0
2.6500000953674316 0.5 0.0
0.3810288906097412 0.399004191160202 0.0
2.308779239654541 0.3797946870326996 0.0
1.0499999523162842 0.6625000238418579 0.0
1.644740104675293 0.6598879098892212 0.0
4.150000095367432 0.3375000059604645 0.0
3.555316209793091 0.3343118131160736 0.0
2.9446933269500732 0.3401789665222168 0.0
1.6342840194702148 0.3290160894393921 0.0
1.0591840744018555 0.33908534049987793 0.0
2.9654481410980225 0.6753292679786682 0.0
3.5534629821777344 0.6835107207298279 0.0
4.153462886810303 0.6835107207298279 0.0
2.2139804363250732 0.6805098056793213 0.0
0.4914395809173584 0.6739721894264221 0.0
4.691666603088379 0.6916666626930237 0.0
4.691666603088379 0.3083333373069763 0.0
2.4872219562530518 0.7236665487289429 0.0
0.6240421533584595 0.2677222192287445 0.0
2.0697431564331055 0.2657754421234131 0.0
2.5389034748077393 0.26082900166511536 0.0
0.8147311806678772 0.7450684309005737 0.0
1.2897310256958008 0.743314266204834 0.0
1.8853894472122192 0.7450258731842041 0.0
4.382374286651611 0.23655959963798523 0.0
3.910269021987915 0.25668570399284363 0.0
3.1838724613189697 0.25397706031799316 0.0
1.398239254951477 0.2614254057407379 0.0
3.201760768890381 0.7385746240615845 0.0
3.8017609119415283 0.7385746240615845 0.0
4.39177942276001 0.7466779351234436 0.0
0.25301694869995117 0.7458874583244324 0.0
2.7258167266845703 0.7600342631340027 0.0
0.84163498878479 0.2263137847185135 0.0
0.22429518401622772 0.22429518401622772 0.0
2.7605957984924316 0.22504857182502747 0.0
1.8330284357070923 0.2150011658668518 0.0
0.2192869633436203 0.5323538780212402 0.0
4.7908525466918945 0.5038931369781494 0.0
2.466000556945801 0.5376454591751099 0.0
3.7061264514923096 0.17723728716373444 0.0
3.3929696083068848 0.20266839861869812 0.0
1.4905184507369995 0.7937026619911194 0.0
1.2104878425598145 0.20361483097076416 0.0
3.9895122051239014 0.7963851690292358 0.0
3.389512300491333 0.7963851690292358 0.0
0.5652223825454712 0.5070380568504333 0.0
0.44509074091911316 0.19716571271419525 0.0
2.1318352222442627 0.5042122602462769 0.0
1.548349142074585 0.4954715371131897 0.0
3.050636053085327 0.5004673004150391 0.0
0.9511125087738037 0.498258113861084 0.0
3.651650905609131 0.5045284628868103 0.0
4.248488903045654 0.4980509281158447 0.0
1.1537858247756958 0.49593159556388855 0.0
4.050199031829834 0.49993085861206055 0.0
3.464722156524658 0.509624183177948 0.0
1.749653697013855 0.5001751780509949 0.0
2.851828098297119 0.5057260394096375 0.0
2.359710216522217 0.1888567954301834 0.0
2.0499017238616943 0.8199846148490906 0.0
0.6430503129959106 0.8181284070014954 0.0
4.560274600982666 0.1724673956632614 0.0
4.55863094329834 0.8299665451049805 0.0
2.321284055709839 0.8242537379264832 0.0
4.815218925476074 0.8345447778701782 0.0
4.837246894836426 0.16590170562267303 0.0
0.9682294130325317 0.8331464529037476 0.0
1.730908751487732 0.827606201171875 0.0
4.220076560974121 0.17516615986824036 0.0
3.02066969871521 0.18326662480831146 0.0
1.5634372234344482 0.17044226825237274 0.0
3.035303831100464 0.8294908404350281 0.0
3.627507209777832 0.8360387086868286 0.0
4.2312469482421875 0.8315803408622742 0.0
4.618130683898926 0.5361976027488708 0.0
0.40311703085899353 0.8369210362434387 0.0
1.1473191976547241 0.8458209037780762 0.0
4.052680969238281 0.15417908132076263 0.0
2.020958423614502 0.6394158005714417 0.0
0.662188708782196 0.6447370648384094 0.0
4.5115838050842285 0.3538685142993927 0.0
1.0221220254898071 0.15309639275074005 0.0
0.3837882876396179 0.5515117049217224 0.0
3.548090934753418 0.15800617635250092 0.0
1.4348299503326416 0.6465393304824829 0.0
3.765170097351074 0.3534606993198395 0.0
3.3348300457000732 0.3534606993198395 0.0
1.2546738386154175 0.36384353041648865 0.0
3.945326089859009 0.636156439781189 0.0
3.3412928581237793 0.637225866317749 0.0
2.1904795169830322 0.17066854238510132 0.0
0.16392111778259277 0.38331863284111023 0.0
2.87723445892334 0.8265392184257507 0.0
4.8459792137146 0.6499902606010437 0.0
4.845625400543213 0.34837812185287476 0.0
2.771622896194458 0.38129922747612 0.0
4.5222978591918945 0.6578375697135925 0.0
2.604464530944824 0.8240283727645874 0.0
1.8544400930404663 0.3751189708709717 0.0
0.8566747903823853 0.38255012035369873 0.0
2.2932615280151367 0.5369129776954651 0.0
2.620572805404663 0.6496497392654419 0.0
0.7172287106513977 0.1490369737148285 0.0
0.1410960853099823 0.8303417563438416 0.0
1.7142322063446045 0.142862930893898 0.0
2.6314175128936768 0.14492936432361603 0.0
1.9832650423049927 0.1408119648694992 0.0
2.445650577545166 0.370038241147995 0.0
2.885042667388916 0.1455758661031723 0.0
0.13937503099441528 0.6546638011932373 0.0
0.9110832810401917 0.6349053978919983 0.0
3.088575839996338 0.3613528311252594 0.0
4.296638011932373 0.3563385307788849 0.0
1.1930090188980103 0.6355591416358948 0.0
1.788455843925476 0.6387236714363098 0.0
4.006990909576416 0.3644408583641052 0.0
1.4459187984466553 0.39242905378341675 0.0
4.354081153869629 0.6075709462165833 0.0
3.7540812492370605 0.6075709462165833 0.0
3.1591691970825195 0.6018876433372498 0.0
2.7615907192230225 0.6205627918243408 0.0
2.36276912689209 0.6735464930534363 0.0
1.3681535720825195 0.8630191683769226 0.0
3.8318464756011963 0.1369808316230774 0.0
3.275517463684082 0.10712132602930069 0.0
0.5630941987037659 0.12814241647720337 0.0
1.3237862586975098 0.10638008266687393 0.0
3.2733232975006104 0.8705052733421326 0.0
3.8733232021331787 0.8705052733421326 0.0
2.0396511554718018 0.38928428292274475 0.0
2.2168734073638916 0.8508136868476868 0.0
0.5163488388061523 0.3409615159034729 0.0
0.6547463536262512 0.3955095112323761 0.0
1.9480526447296143 0.8710126876831055 0.0
4.689375877380371 0.13700176775455475 0.0
4.698264122009277 0.8675068616867065 0.0
0.7578787803649902 0.8698469996452332 0.0
2.479548454284668 0.13692785799503326 0.0
2.4562506675720215 0.8735422492027283 0.0
2.171211004257202 0.3573116958141327 0.0
3.5117530822753906 0.853193998336792 0.0
4.107914924621582 0.8658969402313232 0.0
2.640726327896118 0.354434996843338 0.0
4.346996307373047 0.1279495507478714 0.0
0.3128283619880676 0.11246757209300995 0.0
0.136248379945755 0.12152919173240662 0.0
4.453908443450928 0.8629162907600403 0.0
1.6064813137054443 0.8679171800613403 0.0
0.3380795121192932 0.6626779437065125 0.0
0.5102446675300598 0.875635027885437 0.0
0.7425088882446289 0.2989330589771271 0.0
3.1349449157714844 0.10448489338159561 0.0
1.3287748098373413 0.6181886196136475 0.0
3.871795415878296 0.38215625286102295 0.0
3.229135036468506 0.3810797333717346 0.0
0.28971707820892334 0.8759857416152954 0.0
0.9214505553245544 0.11992674320936203 0.0
1.9219478368759155 0.6237660050392151 0.0
1.530794620513916 0.29603153467178345 0.0
3.072223663330078 0.7044162750244141 0.0
3.6722235679626465 0.7044162750244141 0.0
[...]
POINT_DATA 715
SCALARS Psi double
LOOKUP_TABLE default
0.0
0.0
1.0
1.0
1.0
1.0
1.0
1.0
1.0
1.0
1.0
1.0
1.0
1.0
1.0
1.0
1.0
1.0
1.0
1.0
1.0
1.0
1.0
1.0
1.0
1.0
1.0
1.0
1.0
1.0
1.0
1.0
1.0
1.0
1.0
1.0
1.0
1.0
1.0
1.0
1.0
1.0
1.0
1.0
1.0
1.0
1.0
1.0
1.0
1.0
1.0
1.0
1.0
0.9169542145126426
0.8579629004267846
0.7546285933781978
0.6249946850232345
0.48048614655679084
0.3335779847825959
0.19753974778143435
0.08684703522599356
0.023803692304500197
0.0
0.0
0.0
0.0
0.0
0.0
0.0
0.0
0.0
0.0
0.0
0.0
0.0
0.0
0.0
0.0
0.0
0.0
0.0
0.0
0.0
0.0
0.0
0.0
0.0
0.0
0.0
0.0
0.0
0.0
0.0
0.0
0.0
0.0
0.0
0.0
0.0
0.0
0.0
0.0
0.0
0.0
-0.0
0.0
0.0
0.0
0.0
0.0
0.0
0.02735414161299253
0.10770796626568264
0.20923650887139345
0.3108634076366877
0.4124352420147992
0.5107695937708767
0.6025913440828151
0.6784302600840745
0.6416209411575907
0.5300533506382191
0.53245091640699
0.501796386283851
0.49716127428840273
0.4706248938560846
0.47013723556951265
0.5102910675092233
0.32102643279213094
0.3233790291170167
0.7564462477470772
0.7467571699075226
0.24352586094681966
0.23733096371848922
0.25821983519045966
0.24015023371885924
0.26255776009354387
0.7782607481028305
0.7722179288432833
0.7705576503566135
0.7860618627592927
0.7599676761908505
0.773740365744492
0.1995853376915958
0.843365312829965
0.1589572423301266
0.15994672614560945
0.15328413041345113
0.8741268695073167
0.858900664853627
0.8649284503944226
0.10366277786445832
0.13587105572418526
0.13213128294701196
0.14372375318983727
0.8556036487131093
0.8481948612614723
0.8566024876889313
0.7936620982964103
0.8911961481764245
0.11510961800470869
0.11126561234517873
0.10619911332388493
0.09290090166739857
0.4646674013897457
0.48887525648648855
0.5700550893633269
0.04502387358990354
0.06790611032049929
0.9180948077354043
0.07398571298573216
0.9157019756524818
0.9161310512831996
0.4968180219268479
0.07114434655300064
0.5166355527865757
0.4951794565632803
0.5042185520480835
0.5071764294804365
0.4989398015153099
0.4860946028733371
0.500446132138753
0.4903148436140826
0.5081256059860272
0.5046391330689055
0.5171052325122989
0.06405835229363407
0.949600258766267
0.9589146146267726
0.04350081942258412
0.948703727060141
0.9564744814862637
0.9364672657352181
0.03715313841443919
0.9590094158797551
0.9512737307477718
0.04570241583072704
0.056835914814853394
0.04515034327768552
0.9617288131126641
0.9560428321035173
0.9524432543356263
0.5418896473567374
0.9789227109169198
0.9659345884102238
0.03390183765265697
0.7226296533550511
0.7318106040982743
0.2642992576241786
0.03894612288760937
0.5299488568345269
0.03169991618582901
0.7260062707543375
0.26636367534453476
0.26768577798311155
0.29328398829864183
0.7002936599214966
0.7073861823093871
0.050368363886563364
0.2948115838827485
0.9616279991593067
0.7036546391484257
0.2547550106331112
0.3239662964071617
0.7303104991201376
0.9562080832292825
0.3127781306234169
0.3277925553322511
0.5686200684476636
0.7414184289734851
0.03790582503715514
0.8225824993775321
0.02909098923567949
0.030830895238601826
0.028753721360337513
0.3089759645028689
0.028742168289286146
0.5837754656360428
0.7198101288718765
0.28581165342779075
0.26880105254776193
0.7129045440468247
0.7177079180848517
0.2842225908642922
0.3349105959226646
0.6554703699608743
0.6580789151054249
0.6601068771538969
0.6970794976333344
0.7753030933980829
0.9753835107692873
0.019878547733580124
0.0005946749406038077
0.021096721923013498
0.00048507963078959034
0.9790327687874822
0.9800194403834229
0.33742010409433354
0.9750174046776492
0.2511271083362444
0.33766329013539736
0.984509002487916
0.023165566994900407
0.9767962211072567
0.9847763009856191
0.025710615380486603
0.983243293414327
0.28961317574750317
0.9653722481429741
0.9771361829554092
0.28502986934180247
0.006228759805672321
0.005935519261771802
0.02259265661313169
0.9750523105971659
0.9784053849644809
0.6946510848948682
0.9928890125403612
0.2045143656064548
0.0021270966695939833
0.6842838167145038
0.3106592497793147
0.3121083065847703
1.0185557028669765
0.02278239352002925
0.6972849483892974
0.19215490946246824
0.8157526256195541
0.8010916091775855
0.7997709633806278
1.007962341654872
0.683635610948009
0.004207303768838842
0.9943762097096935
0.993998273156061
0.15514377967229734
0.34449542162720215
0.19919266444870457
0.9955066000565173
0.003885592267544594
0.8573934701974636
0.3083062050259905
0.13383874485952899
0.3411360090509869
0.013140779571183762
0.16201206537613586
0.9902508216097523
0.9898796902010979
0.13945732794537563
0.20510377467357516
-0.0022410116280703776
0.44789033394693567
-0.004349257755454523
0.4047470698741339
0.20657075934214467
-0.004533612073949705
-0.0007361126450561779
0.41694868746786923
0.4318984203018767
0.4188618554394488
0.5822263891821885
0.5793097431832838
0.0030629975679071766
0.5545645437760737
0.0018172786788194443
0.6849687708372972
0.14220294286187868
0.6022602596265472
1.0018641034282874
0.7878946385644596
0.18115658691071126
0.7854005996352998
0.19512358814334813
0.2149919853777884
0.796152934518792
0.9996105893342323
0.0011089750168861226
0.1452277978395657
0.8468207343819805
0.14344576372558634
0.3363470639981637
0.6143982510274466
0.8145889421357257
0.12969208106934815
0.4114453932063822
0.41778307973176837
0.6022755918572984
0.5879476977361949
0.5839067023268706
0.020971127956969843
0.6538392419457029
0.14516416554587774
0.8508928745017923
0.8461337431772306
0.5812301716987623
0.41480993754012624
0.4264297982959684
0.003108654212325904
0.5820465175768579
0.8497156343729101
0.14864949951696801
1.0081009473462272
0.21162442650632235
0.5742573318190882
0.6577298797609684
0.4181269585857606
0.8519325079533868
0.5774489596498853
0.9992992447598923
0.45795408583370945
0.9868654394281966
0.9857738812839508
0.8824601245103622
0.8641096895594933
0.9570646041920178
0.008711884626946146
0.4251878257439746
0.6951016554490207
0.5729937439521116
0.6730159789964606
0.3872187511277184
0.11384408340054307
-0.0015270299622130383
0.44618030320918256
0.21150552983382848
0.829151456768454
0.552110606226649
0.44454080017526004
0.44788046923214614
0.8502327358877967
0.8647969992472846
0.14757446625395557
0.13644909025650567
0.8556239501172567
0.41998078759702434
0.9996426885438985
0.1433710086583199
0.8926349414283535
0.8943863709129801
0.36717651045743543
0.9094177753570782
1.0049527658006612
0.12914258361137046
0.16157077240901613
0.6635689191760945
0.33117585855251414
0.6627664000431046
0.6758382240570867
0.09404484495641567
0.6511049892410776
0.3451086246429664
0.3435837326417484
0.00650164821108015
0.4762062965581394
0.270226510627528
0.7208125268290999
0.74879951281535
0.34926444170668475
0.8667345590989993
0.652251617009263
0.6485631941719489
0.6272873608903442
0.0077859546936585615
0.008435135359243666
0.15241460435945767
0.8111527990229231
-0.0040621567001007984
0.9163115921057611
0.9096210568224085
0.8362436829750824
-0.004291076738099027
-0.0047552982180194105
0.19059069656257727
0.35424851867553364
-0.0009318007650408736
1.0011258794185416
0.3413985477704465
0.8762753607890083
1.0004667682130373
0.868955805366322
0.1329027556707003
1.0075524297135154
-0.002946638289395171
0.11422994319128278
0.9950514304521062
-0.0011286033433073835
0.3230829767317254
0.00016748074377823455
0.6816294098327246
0.003967336189996763
1.0030019799766914
1.005496392320374
0.12181575021452778
0.4930980957482346
0.16686911167645277
0.99776180650827
0.8774103875033367
0.9999239267947462
0.34968472609829815
0.9992048989925356
1.002785949266865
0.1403205219764589
0.0976886108249289
0.00012979580729288796
0.30064434458708966
0.6416357485088776
0.5863969900589868
0.4116257677569072
0.5560340342638926
1.0050505793384672
0.2555412724980412
0.5688156659301957
1.0009432918295902
-9.771978351945308e-05
-0.002323245293212814
0.20089082502360273
0.4077205925423055
0.5743491573187702
-0.002272814792730886
0.9113650963078614
1.0072845051003343
0.8850772758205133
0.09823522071450878
0.9047173524038198
0.8959863947562147
0.6255220933199134
0.09071290388284937
0.8867370899562229
-0.002312407372161605
0.29526286513596356
0.0026732797808436044
0.9211451794605857
0.07603253192210441
-0.002301598804743506
0.5785644600752344
0.5402753328859043
1.0056764610858837
1.0152046551475264
1.002767208404618
0.0013540138191693038
0.4382205981985851
0.6674197268860715
0.670130061795523
0.666318633462031
0.33275126870132316
0.3290804427369277
0.33958051990368776
0.9388398615270194
1.035200262419609
0.9971934818260595
0.9940358007073785
0.9604245907273992
0.6852710235666685
0.7454082612534312
-0.002700603288135272
0.06554015694963244
0.7773269163167874
0.6962386893538401
0.25742149357123567
0.8726298027725323
0.09357231619992579
0.08485370738532427
0.7085318838761785
0.6089764324750556
0.4367615115184981
0.9981241760713283
1.002062639498371
0.7595089142942257
0.10352299585919773
0.9255797635569432
0.22732973752505042
0.9481890210816013
0.0602321068009322
1.0007678000218707
0.0019425441463252317
0.37918696570147137
0.6095044547622886
0.3721386657945773
0.8336905922771769
0.04798131157438726
0.5876201782544521
0.37558716267896425
0.8227706056075597
-0.0016657194016139042
-0.0041699643844038655
0.18946591258542936
0.18653581270958836
0.0614973638856507
0.11737667773384615
0.9408262879380969
0.8213399919605207
0.1750598558477436
0.7863507245677617
0.22015047328196435
0.9068395361460198
0.8904203163164169
0.8895077406598221
-0.006202496863826064
0.9352505800858177
0.36091025507966273
0.23420224350752575
1.001124549228343
0.18433483853220506
0.5515091348410868
0.7040389920578939
0.5989886161308824
0.6387241360156879
0.04628130585607342
0.9457485225459086
0.9441964633577218
0.06694858268728393
0.6963477529537411
-0.007132368687858745
1.007225767033632
1.0047527278753068
0.03987312303769387
0.05499699536273571
0.8878191540102792
0.25440520353487517
0.9429408180487391
0.46139368009735887
0.8503609267867753
-0.00039912797902608187
0.626493336524767
0.3648666989008846
0.37213712258444476
1.001719124442461
-0.002727834607128707
0.5572804687085176
-0.007643099322897006
0.41259185107819685
0.07142056385611485
-0.001287648979776148
0.246505590936347
0.6195069514451038
0.7203085920515467
0.7696430526635616
0.9406542516278306
0.05449914353414949
0.2589768755298065
0.20141690353362923
0.7601166266892556
1.0054192205075267
0.23672419561212926
0.07811166923174596
0.2032153267779675
0.060127034018093224
0.9196573649956253
0.052793356013253204
0.2192913382754756
0.771145786337577
0.7729399252703893
0.7845834519617456
0.4105401154224795
1.0067764596821838
0.38321372359893474
0.9102807211898266
-0.001935950270630787
0.05493475892318177
0.04502860581606285
0.5902962370684227
0.08006829448967769
0.0021739707405560734
0.05989679063086898
0.081512392505213
0.4227187135539612
0.5581650033244099
0.03348689945390996
0.21030680256273698
-0.0018351873088342198
1.000478002625218
0.9148859232098935
0.43229114345494696
0.5626716240335164
0.6152048989643647
0.9284215747294495
0.05798232008620535
0.054227195903622995
0.9986134583608448
0.0346647852828067
0.5060795622561587
0.34005072869234887
0.12121265101868049
-0.0014075776429918615
0.7792319181313893
0.9497705451144215
0.1554627029122551
0.13888690923319397
0.8348334734802847
1.0022494885359772
0.047334103590834696
0.9355194864378297
0.9348404269121053
0.45083665501070885
0.44509394048823187
1.0012564940330064
0.22016088839235215
0.3346625417908297
0.38494204808649196
-2.7125370397063083e-05
0.9627856613890647
0.9636323300846901
0.24480160341689125
0.5873686174202329
0.8155056588591195
0.8181550203002196
0.1967649642515354
0.817804139127033
0.25016730804879156
0.867252261132299
0.8669776862969026
0.6120269517215909
0.8839787535560782
0.6093675720499565
0.0582481067590726
0.9427026009830635
0.39791084316169195
0.6084587534253715
0.38531615544829184
-0.008967525702644646
0.3138755455145251
0.05688500032802897
-0.0011689980999674168
0.5626373356548733
0.12540918844259302
0.22801646510977736
0.08611047695571925
0.7940611416620409
0.8633344821161555
0.9721337865072244
0.5769640094542084
0.0031634026756086377
0.4180055743180763
0.08170071162329601
0.9994896037662273
1.0006638434891413
-0.0015298855343869086
0.057773198025331055
0.9396608787353171
0.00039655680307177727
-0.005999706819769295
0.24989007011432993
0.745654867005596
0.43714685349634297
1.0035516667849604
0.2481252537641213
0.8069690631628978
0.20947135372829867
0.7868274236431451
0.20684384137813946
0.9788139680511777
0.00209528833302099
0.4178180628547676
1.0012417482042462
0.9554118198267336
0.04759513309276398

SCALARS Omega double
LOOKUP_TABLE default
-7.6757954377608515
-1.3093402830968952
8.451420067273771
15.920919105108178
36.50752190886878
-6.451037640252764
2.41998033372735
-4.50990073101431
-0.49507323218536275
1.7502388467553898
-0.16250121093505632
-0.9319592060991806
0.4176992916247658
1.347089116266568
0.1542013638111009
0.9096359779301846
0.613440368810146
0.8882893895389268
1.843978690982157
-0.17309332535638228
1.5933175149581205
1.3367985115029202
-0.7149118771901816
0.47011135582284014
1.0924577411920726
1.0341971073059266
0.6572298531247357
0.10359800589331307
0.4122922958687427
1.4844695294242154
1.1478776779997637
0.04981400513855747
1.384825428209045
0.8543432480828194
0.4382692779280093
1.305301490967471
0.8235242542903739
0.43152479987371367
1.5071940113119366
0.7580651691100327
1.5617006297937892
0.8033933490526685
0.42524006656238666
0.4192775908680887
1.071974647405026
0.864155137685408
2.477536328180267
0.5492748887856073
-0.6442203449629644
2.40838976255468
1.0071323014373579
2.113554805542143
9.76261140188789
-7.321226322635036
0.22318391390592876
2.112536866792309
1.2344969791762068
-0.034537564756507086
-0.47196018872232537
-1.8825603369590929
-2.6955152280063204
-2.0651005568846577
-0.47414685677308477
-1.0448685998722327
-1.3026603225674955
-0.02149469881422379
-0.9011455027408393
-0.3803966670073748
-1.153737815998829
-0.9139286756567749
-0.3015193677325804
-0.8208341100693832
-0.4840803189134343
0.22029285141221913
-2.0308864497121406
-0.6380183679711489
0.573139755366951
-1.6451224002834683
-0.5548304503975218
-0.1451390972781791
-1.173531709101548
-0.8336769128006516
-0.38504781907224306
-1.2185381651552956
-1.0329751859572969
-1.6490842547038929
-0.039278499249188255
-0.5476398617687998
-1.1899640825385533
-1.3213761960971413
-0.8659926147298962
0.8309596952889055
-1.6617423544328385
-1.4471610527861842
0.29145729722200686
-0.9675608508868183
-1.200516810316761
-0.07541826992963947
-0.5086683633367223
-1.6198160908403285
-1.612839467711727
-0.33737078635432277
-1.9748819760282268
-0.4478656063986293
-2.0136145502516656
-0.4615793762116667
-0.0589925699820569
-2.0465571193410295
-1.8939101692715674
-0.8218561538504089
0.7495493601170006
-4.5909160162820255
2.6447948052319417
0.3113899432823315
-0.02356314693537515
-0.8560336810052448
1.6538623344476915
-5.891840544733427
-2.3520576407526312
-42.5923455816895
-0.304977209716513
0.147361348817752
0.026240701715270348
-0.05613332426280044
-0.07521596324427264
-0.11162706615523577
0.05707200142505471
-0.3911217782216873
-0.819665318987021
1.7803765472926836
1.406036551336724
-1.6343512819362367
-1.5175108716098542
-1.3940639468877163
-1.571202781273995
-1.1497108849863085
1.914107932658017
1.6306461446924316
1.5471264187137557
1.9646434408147402
2.311507733386272
1.9399097144065451
-2.05042889131832
3.0935562979749798
-2.506926818124501
-3.0359666592436825
-3.158095274261902
4.596122474098781
3.1686743959867782
3.449593045116189
-4.142263576791099
-3.3817949059271957
-3.538614665501797
-3.293183235845056
3.416858283943802
3.010561117408856
3.4232510375265726
2.0001243673697595
4.051743775266691
-3.6720019361457146
-1.7046747071472694
-4.125017348146176
-4.4422813634397125
-1.444197056080046
-0.027613112473555166
0.3077621345528591
-6.5767497769736405
-5.43419046494899
4.8062038545836385
-5.026056592359312
4.9531896895419925
4.72176727781924
-1.1133112423547153
-5.010530208676758
0.0844036763174012
0.026891500316083637
0.014849283010799522
0.006548364421978389
0.018668811139411594
-0.09759637017478012
0.07882328488406165
-0.05483627463444646
0.02053577125699261
0.03718767200696977
0.042939845042310326
-5.710039751033464
5.707825561689733
7.653050260928038
-6.236698635282212
6.15847189857776
6.373600563475607
6.132607661205412
-5.987602146403521
5.8860437839644915
5.7114433583169735
-5.9643604285420855
-5.632798899080208
-6.596627365564567
7.061787189997872
6.099461656069272
6.015114300446192
0.07173920496954975
13.318634991324465
6.34435185377743
-6.100356451674975
1.2770606553853328
2.060566859985518
-1.1675305480012819
-5.672906947890635
-2.3117862851632696
-6.537719758979535
1.1474896279737277
-1.1900268921428392
-1.2891991709254047
-0.9247302225707442
0.7801756790436517
1.062588103639597
-5.772121671695689
0.07646400728500016
6.649428297975168
0.8217097882593973
-0.9284775765508602
-0.8137444384841375
1.133367904094887
5.945334741025828
-0.8420070587912795
-0.7234065020497445
0.2705230268789545
1.3910833019084843
-6.377785070751937
-1.8373924952413487
-6.671049349242716
-6.603287134192302
-7.025822431765341
-0.8851886005158732
-6.847984555267006
-4.545677417650372
1.660593542003084
-1.2514393529003545
-1.3044852841240895
1.1942907990396716
1.2693415753083506
-1.0888677263591768
-0.6622245709266601
0.5370992525184808
0.5997323656712285
0.7335722707053666
0.9960605167266583
2.0104254965191632
6.714358701609376
-7.379747144382514
-8.616820025534233
-6.840893125019322
-9.228596396382185
7.153108634604227
7.834372525647887
-0.6365637338854617
7.469484287910242
-0.8871003493258143
-0.7918223353259327
7.479122939243845
-6.3105054358462285
8.774660833324813
6.695015661311928
-6.939969280768841
6.313360902721539
-1.0162924757106957
6.204186947913035
7.878890458426807
-1.0438624098866378
-9.681508473340543
-10.852895952034798
-8.807262446462339
7.3390521447886625
6.705193319974793
-1.009578839461466
7.304721354162693
-1.8605260228606206
-9.037770372000159
0.8937526861246956
-0.8289410695226525
-1.0421146166647317
23.601794669863416
-6.628562998665566
1.1516995152600145
-2.3472946326702093
2.5951869236529204
2.0205086647504498
2.0420205638100635
8.866424420934006
1.3057145243624118
-9.148664541694476
9.805487172044629
7.861981555196578
-1.4784430765795273
-0.5270227568481624
-2.090657062173021
8.277216650451741
-7.833636697324804
3.301970245182394
-0.9087095212964718
-3.25808818163651
-0.46773262281078126
-7.238586157605039
3.2839473315836734
8.666971169716605
6.469521199130635
-3.3440452070215625
-2.0506761182649202
-10.848289009426537
-0.12785736410871354
-9.434137007156238
-1.4171169513204531
-2.0107512233524125
-9.84568350460263
-9.218257321639312
-0.3206962189148887
-0.24117934424379026
-0.27123533060073707
0.4048438196923746
0.2903021366323982
-8.735103310273393
0.9145786357460904
-10.62248739492077
1.0185955003529246
-3.239987789256628
-4.151891859616509
11.134967129063629
1.87348506648713
-2.262236176939668
1.9436525801288174
-2.1243227806676
-1.8529118824553947
1.9729156358333395
8.665258715571687
-7.665473525977464
-3.1566338391391984
2.86370054922234
-3.1766014597109504
-0.5884145955588088
0.3810772663013679
3.764454022494062
-7.0867257662296534
-0.2628489512586109
-0.22385425730147834
0.36916672296837255
0.3313418624824291
0.19761019847506756
-7.052183154599295
-8.045777311900151
-3.165110952245084
3.14346327464568
2.8776707923926446
0.3506112608713433
-0.2729645846015992
-0.2852788762541791
-10.495618378924163
0.3230305690205419
2.8825748685569264
-3.0171001280226943
10.779316336039054
-1.9421012922106364
-0.3222104047318456
0.2285122364512292
-0.25777013700377066
3.2105836400472376
0.21826367543847608
10.103099708975236
-0.09818404907028117
7.793581682079999
7.181835934516261
3.901302815023949
5.174493715223293
4.05683513539934
-9.339660498073513
-1.2331210880761496
0.8759431197107349
0.2868839626912631
0.8319771753541993
-0.584850351007615
-3.9741309086054937
-10.010434178482756
-0.22611981129990313
0.7263401560704196
2.7151560608599423
0.19046152184738294
-0.16212280707343668
-0.19275558716506933
5.339560029267331