# vtk DataFile Version 1.0
2D Simulation C++
ASCII
DATASET UNSTRUCTURED_GRID
FIELD FieldData 1
NODES 1 2 int
715 1308

POINTS 715 double
0.0 0.0 0.0
5.0 0.0 0.0
5.0 1.0 0.0
0.0 1.0 0.0
0.10000000149011612 1.0 0.0
0.20000000298023224 1.0 0.0
0.30000001192092896 1.0 0.0
0.4000000059604645 1.0 0.0
0.5 1.0 0.0
0.6000000238418579 1.0 0.0
0.699999988079071 1.0 0.0
0.800000011920929 1.0 0.0
0.8999999761581421 1.0 0.0
1.0 1.0 0.0
1.100000023841858 1.0 0.0
1.2000000476837158 1.0 0.0
1.2999999523162842 1.0 0.0
1.399999976158142 1.0 0.0
1.5 1.0 0.0
1.600000023841858 1.0 0.0
1.7000000476837158 1.0 0.0
1.7999999523162842 1.0 0.0
1.899999976158142 1.0 0.0
2.0 1.0 0.0
2.0999999046325684 1.0 0.0
2.200000047683716 1.0 0.0
2.299999952316284 1.0 0.0
2.4000000953674316 1.0 0.0
2.5 1.0 0.0
2.5999999046325684 1.0 0.0
2.700000047683716 1.0 0.0
2.799999952316284 1.0 0.0
2.9000000953674316 1.0 0.0
3.0 1.0 0.0
3.0999999046325684 1.0 0.0
3.200000047683716 1.0 0.0
3.299999952316284 1.0 0.0
3.4000000953674316 1.0 0.0
3.5 1.0 0.0
3.5999999046325684 1.0 0.0
3.700000047683716 1.0 0.0
3.799999952316284 1.0 0.0
3.9000000953674316 1.0 0.0
4.0 1.0 0.0
4.099999904632568 1.0 0.0
4.199999809265137 1.0 0.0
4.300000190734863 1.0 0.0
4.400000095367432 1.0 0.0
4.5 1.0 0.0
4.599999904632568 1.0 0.0
4.699999809265137 1.0 0.0
4.800000190734863 1.0 0.0
4.900000095367432 1.0 0.0
5.0 0.8999999761581421 0.0
5.0 0.800000011920929 0.0
5.0 0.699999988079071 0.0
5.0 0.6000000238418579 0.0
5.0 0.5 0.0
5.0 0.4000000059604645 0.0
5.0 0.30000001192092896 0.0
5.0 0.20000000298023224 0.0
5.0 0.10000000149011612 0.0
4.900000095367432 0.0 0.0
4.800000190734863 0.0 0.0
4.699999809265137 0.0 0.0
4.599999904632568 0.0 0.0
4.5 0.0 0.0
4.400000095367432 0.0 0.0
4.300000190734863 0.0 0.0
4.199999809265137 0.0 0.0
4.099999904632568 0.0 0.0
4.0 0.0 0.0
3.9000000953674316 0.0 0.0
3.799999952316284 0.0 0.0
3.700000047683716 0.0 0.0
3.5999999046325684 0.0 0.0
3.5 0.0 0.0
3.4000000953674316 0.0 0.0
3.299999952316284 0.0 0.0
3.200000047683716 0.0 0.0
3.0999999046325684 0.0 0.0
3.0 0.0 0.0
2.9000000953674316 0.0 0.0
2.799999952316284 0.0 0.0
2.700000047683716 0.0 0.0
2.5999999046325684 0.0 0.0
2.5 0.0 0.0
2.4000000953674316 0.0 0.0
2.299999952316284 0.0 0.0
2.200000047683716 0.0 0.0
2.0999999046325684 0.0 0.0
2.0 0.0 0.0
1.899999976158142 0.0 0.0
1.7999999523162842 0.0 0.0
1.7000000476837158 0.0 0.0
1.600000023841858 0.0 0.0
1.5 0.0 0.0
1.399999976158142 0.0 0.0
1.2999999523162842 0.0 0.0
1.2000000476837158 0.0 0.0
1.100000023841858 0.0 0.0
1.0 0.0 0.0
0.8999999761581421 0.0 0.0
0.800000011920929 0.0 0.0
0.699999988079071 0.0 0.0
0.6000000238418579 0.0 0.0
0.5 0.0 0.0
0.4000000059604645 0.0 0.0
0.30000001192092896 0.0 0.0
0.20000000298023224 0.0 0.0
0.10000000149011612 0.0 0.0
0.0 0.10000000149011612 0.0
0.0 0.20000000298023224 0.0
0.0 0.30000001192092896 0.0
0.0 0.4000000059604645 0.0
0.0 0.5 0.0
0.0 0.6000000238418579 0.0
0.0 0.699999988079071 0.0
0.0 0.800000011920929 0.0
0.0 0.8999999761581421 0.0
0.7496038675308228 0.5164291858673096 0.0
1.3451675176620483 0.5190238952636719 0.0
1.9462687969207764 0.4963642954826355 0.0
4.456614971160889 0.5060901641845703 0.0
3.864220380783081 0.4866538345813751 0.0
3.249823808670044 0.482722669839859 0.0
2.6500000953674316 0.5 0.0
0.3810288906097412 0.399004191160202 0.0
2.308779239654541 0.3797946870326996 0.0
1.0499999523162842 0.6625000238418579 0.0
1.644740104675293 0.6598879098892212 0.0
4.150000095367432 0.3375000059604645 0.0
3.555316209793091 0.3343118131160736 0.0
2.9446933269500732 0.3401789665222168 0.0
1.6342840194702148 0.3290160894393921 0.0
1.0591840744018555 0.33908534049987793 0.0
2.9654481410980225 0.6753292679786682 0.0
3.5534629821777344 0.6835107207298279 0.0
4.153462886810303 0.6835107207298279 0.0
2.2139804363250732 0.6805098056793213 0.0
0.4914395809173584 0.6739721894264221 0.0
4.691666603088379 0.6916666626930237 0.0
4.691666603088379 0.3083333373069763 0.0
2.4872219562530518 0.7236665487289429 0.0
0.6240421533584595 0.2677222192287445 0.0
2.0697431564331055 0.2657754421234131 0.0
2.5389034748077393 0.26082900166511536 0.0
0.8147311806678772 0.7450684309005737 0.0
1.2897310256958008 0.743314266204834 0.0
1.8853894472122192 0.7450258731842041 0.0
4.382374286651611 0.23655959963798523 0.0
3.910269021987915 0.25668570399284363 0.0
3.1838724613189697 0.25397706031799316 0.0
1.398239254951477 0.2614254057407379 0.0
3.201760768890381 0.7385746240615845 0.0
3.8017609119415283 0.7385746240615845 0.0
4.39177942276001 0.7466779351234436 0.0
0.25301694869995117 0.7458874583244324 0.0
2.7258167266845703 0.7600342631340027 0.0
0.84163498878479 0.2263137847185135 0.0
0.22429518401622772 0.22429518401622772 0.0
2.7605957984924316 0.22504857182502747 0.0
1.8330284357070923 0.2150011658668518 0.0
0.2192869633436203 0.5323538780212402 0.0
4.7908525466918945 0.5038931369781494 0.0
2.466000556945801 0.5376454591751099 0.0
3.7061264514923096 0.17723728716373444 0.0
3.3929696083068848 0.20266839861869812 0.0
1.4905184507369995 0.7937026619911194 0.0
1.2104878425598145 0.20361483097076416 0.0
3.9895122051239014 0.7963851690292358 0.0
3.389512300491333 0.7963851690292358 0.0
0.5652223825454712 0.5070380568504333 0.0
0.44509074091911316 0.19716571271419525 0.0
2.1318352222442627 0.5042122602462769 0.0
1.548349142074585 0.4954715371131897 0.0
3.050636053085327 0.5004673004150391 0.0
0.9511125087738037 0.498258113861084 0.0
3.651650905609131 0.5045284628868103 0.0
4.248488903045654 0.4980509281158447 0.0
1.1537858247756958 0.49593159556388855 0.0
4.050199031829834 0.49993085861206055 0.0
3.464722156524658 0.509624183177948 0.0
1.749653697013855 0.5001751780509949 0.0
2.851828098297119 0.5057260394096375 0.0
2.359710216522217 0.1888567954301834 0.0
2.0499017238616943 0.8199846148490906 0.0
0.6430503129959106 0.8181284070014954 0.0
4.560274600982666 0.1724673956632614 0.0
4.55863094329834 0.8299665451049805 0.0
2.321284055709839 0.8242537379264832 0.0
4.815218925476074 0.8345447778701782 0.0
4.837246894836426 0.16590170562267303 0.0
0.9682294130325317 0.8331464529037476 0.0
1.730908751487732 0.827606201171875 0.0
4.220076560974121 0.17516615986824036 0.0
3.02066969871521 0.18326662480831146 0.0
1.5634372234344482 0.17044226825237274 0.0
3.035303831100464 0.8294908404350281 0.0
3.627507209777832 0.8360387086868286 0.0
4.2312469482421875 0.8315803408622742 0.0
4.618130683898926 0.5361976027488708 0.0
0.40311703085899353 0.8369210362434387 0.0
1.1473191976547241 0.8458209037780762 0.0
4.052680969238281 0.15417908132076263 0.0
2.020958423614502 0.6394158005714417 0.0
0.662188708782196 0.6447370648384094 0.0
4.5115838050842285 0.3538685142993927 0.0
1.0221220254898071 0.15309639275074005 0.0
0.3837882876396179 0.5515117049217224 0.0
3.548090934753418 0.15800617635250092 0.0
1.4348299503326416 0.6465393304824829 0.0
3.765170097351074 0.3534606993198395 0.0
3.3348300457000732 0.3534606993198395 0.0
1.2546738386154175 0.36384353041648865 0.0
3.945326089859009 0.636156439781189 0.0
3.3412928581237793 0.637225866317749 0.0
2.1904795169830322 0.17066854238510132 0.0
0.16392111778259277 0.38331863284111023 0.0
2.87723445892334 0.8265392184257507 0.0
4.8459792137146 0.6499902606010437 0.0
4.845625400543213 0.34837812185287476 0.0
2.771622896194458 0.38129922747612 0.0
4.5222978591918945 0.6578375697135925 0.0
2.604464530944824 0.8240283727645874 0.0
1.8544400930404663 0.3751189708709717 0.0
0.8566747903823853 0.38255012035369873 0.0
2.2932615280151367 0.5369129776954651 0.0
2.620572805404663 0.6496497392654419 0.0
0.7172287106513977 0.1490369737148285 0.0
0.1410960853099823 0.8303417563438416 0.0
1.7142322063446045 0.142862930893898 0.0
2.6314175128936768 0.14492936432361603 0.0
1.9832650423049927 0.1408119648694992 0.0
2.445650577545166 0.370038241147995 0.0
2.885042667388916 0.1455758661031723 0.0
0.13937503099441528 0.6546638011932373 0.0
0.9110832810401917 0.6349053978919983 0.0
3.088575839996338 0.3613528311252594 0.0
4.296638011932373 0.3563385307788849 0.0
1.1930090188980103 0.6355591416358948 0.0
1.788455843925476 0.6387236714363098 0.0
4.006990909576416 0.3644408583641052 0.0
1.4459187984466553 0.39242905378341675 0.0
4.354081153869629 0.6075709462165833 0.0
3.7540812492370605 0.6075709462165833 0.0
3.1591691970825195 0.6018876433372498 0.0
2.7615907192230225 0.6205627918243408 0.0
2.36276912689209 0.6735464930534363 0.0
1.3681535720825195 0.8630191683769226 0.0
3.8318464756011963 0.1369808316230774 0.0
3.275517463684082 0.10712132602930069 0.0
0.5630941987037659 0.12814241647720337 0.0
1.3237862586975098 0.10638008266687393 0.0
3.2733232975006104 0.8705052733421326 0.0
3.8733232021331787 0.8705052733421326 0.0
2.0396511554718018 0.38928428292274475 0.0
2.2168734073638916 0.8508136868476868 0.0
0.5163488388061523 0.3409615159034729 0.0
0.6547463536262512 0.3955095112323761 0.0
1.9480526447296143 0.8710126876831055 0.0
4.689375877380371 0.13700176775455475 0.0
4.698264122009277 0.8675068616867065 0.0
0.7578787803649902 0.8698469996452332 0.0
2.479548454284668 0.13692785799503326 0.0
2.4562506675720215 0.8735422492027283 0.0
2.171211004257202 0.3573116958141327 0.0
3.5117530822753906 0.853193998336792 0.0
4.107914924621582 0.8658969402313232 0.0
2.640726327896118 0.354434996843338 0.0
4.346996307373047 0.1279495507478714 0.0
0.3128283619880676 0.11246757209300995 0.0
0.136248379945755 0.12152919173240662 0.0
4.453908443450928 0.8629162907600403 0.0
1.6064813137054443 0.8679171800613403 0.0
0.3380795121192932 0.6626779437065125 0.0
0.5102446675300598 0.875635027885437 0.0
0.7425088882446289 0.2989330589771271 0.0
3.1349449157714844 0.10448489338159561 0.0
1.3287748098373413 0.6181886196136475 0.0
3.871795415878296 0.38215625286102295 0.0
3.229135036468506 0.3810797333717346 0.0
0.28971707820892334 0.8759857416152954 0.0
0.9214505553245544 0.11992674320936203 0.0
1.9219478368759155 0.6237660050392151 0.0
1.530794620513916 0.29603153467178345 0.0
3.072223663330078 0.7044162750244141 0.0
3.6722235679626465 0.7044162750244141 0.0
[...]
POINT_DATA 715
SCALARS Psi double
LOOKUP_TABLE default
0.0
0.0
1.0
1.0
1.0
1.0
1.0
1.0
1.0
1.0
1.0
1.0
1.0
1.0
1.0
1.0
1.0
1.0
1.0
1.0
1.0
1.0
1.0
1.0
1.0
1.0
1.0
1.0
1.0
1.0
1.0
1.0
1.0
1.0
1.0
1.0
1.0
1.0
1.0
1.0
1.0
1.0
1.0
1.0
1.0
1.0
1.0
1.0
1.0
1.0
1.0
1.0
1.0
0.916878631566145
0.857716285495186
0.7543020123828519
0.6248261921157968
0.4806378159817077
0.33403489812016
0.19809561706411102
0.08723800910784055
0.023936388840194705
0.0
0.0
0.0
0.0
0.0
0.0
0.0
0.0
0.0
0.0
0.0
0.0
0.0
0.0
0.0
0.0
0.0
0.0
0.0
0.0
0.0
0.0
0.0
0.0
0.0
0.0
0.0
0.0
0.0
0.0
0.0
0.0
0.0
0.0
0.0
0.0
0.0
0.0
0.0
0.0
0.0
0.0
-0.0
0.0
0.0
0.0
0.0
0.0
0.0
0.02736154828147372
0.10772445145886729
0.20926045072427868
0.31089256127239384
0.41246630254755595
0.5107985356063035
0.602617033412242
0.6784520625467904
0.6416297299300687
0.5300364501614467
0.532139598574066
0.5017597617999584
0.4972929017255269
0.4707090690698133
0.4702108928662473
0.5101698266400556
0.3211358316839922
0.323654633908321
0.7556038972732539
0.7462779904889197
0.2440198740763176
0.23785496945642604
0.25862336113360473
0.24058140110851745
0.2628414832640434
0.7778199078553906
0.7716927251527476
0.7701007419805981
0.7855590249464103
0.7599624237328687
0.7733895634368798
0.20019739814531679
0.8428880033263246
0.15917359726688757
0.16033186337932326
0.15361707001146135
0.8735547450170954
0.8583232625993754
0.8645605991404958
0.10405359801329804
0.1362972775504146
0.13251191107475305
0.14399917946068735
0.8551705278120969
0.8477596776430716
0.8562808550516973
0.7937080130085821
0.8908606282671194
0.1154124692990549
0.11127867160696417
0.10648797316634376
0.0932256874116576
0.46472665961442583
0.4890337935217597
0.5697788637921686
0.045208704656662074
0.0681372851479052
0.9177876100682681
0.07411568042392164
0.9153971892431599
0.915784168399648
0.4969632104096093
0.07115844785301483
0.5165293118823143
0.49508446153293256
0.5041907940089491
0.506990492753542
0.49895143334631803
0.4861951466708284
0.5001602625070349
0.49036402703797227
0.5081112241628694
0.5045950151819188
0.5170094076967386
0.06421529559858218
0.9494359223838412
0.9588461105737871
0.04371344871775526
0.9485831173557323
0.9563338052722888
0.9362788760984071
0.03740219973512461
0.95867062294232
0.9511210046007154
0.04587463468035391
0.0570045019421032
0.045314130794333905
0.9616117548153592
0.9558733792666281
0.9522684568480784
0.5419301604999585
0.9789788206223681
0.9657030045999561
0.034036624537126386
0.7221789183060486
0.7315599747247933
0.2648798971995713
0.039061436319875825
0.5300648908897805
0.03181815645799035
0.725429750546696
0.2668490708178984
0.26817716000073044
0.29346752604418674
0.6998734970585119
0.7069273972886649
0.0505216001475591
0.2948472533811913
0.9615531735149255
0.7032962775011646
0.25539813863295935
0.32426281478979796
0.7299921585471235
0.9560409322800447
0.3131504879088702
0.32808895312435765
0.5683700060756192
0.7408818372172696
0.037988944487952356
0.8225994617237132
0.02922363807073411
0.03093444685160373
0.028862754444044434
0.30926118183469786
0.028811582142688127
0.5838102007733144
0.7191110512261291
0.28621184374169545
0.26931102029523324
0.712158106083894
0.7172858809652105
0.2846726013587247
0.33510692133349057
0.6552202258220814
0.6577176100761922
0.6597467636141066
0.696633936730036
0.7747950510322555
0.9752681944589914
0.019960939357447943
0.000536697184276781
0.02109758719520953
0.0004427806730433983
0.9789419854474818
0.9799481920332157
0.337723025483529
0.9749689522754299
0.25130325952112936
0.33793095942928286
0.9844794209644749
0.023275465369350355
0.976747849627168
0.9847197065383232
0.025772322530550187
0.9831896661539955
0.28995815432530303
0.9652226576516583
0.977033639669191
0.28535725493390995
0.0062511766462041716
0.0059229915213045705
0.022599096551362937
0.9749906138604288
0.9783300537054034
0.6947229320839565
0.9929795471012787
0.20485446575038435
0.00207603439430004
0.6836700757099429
0.31107762856259297
0.3125099758623821
1.0185541134012537
0.022859881212398066
0.6968811807326394
0.19253548558809708
0.815319617542672
0.8006020359851997
0.7993652033986337
1.0080611360838323
0.6832268997948212
0.004200894433348523
0.9943669036268649
0.9939777991968279
0.15517488372949345
0.3449979813465044
0.19963694636744977
0.9954768878883428
0.003898269473588019
0.8570211140190348
0.3088072760311353
0.13414935475399717
0.34120220025169906
0.013185923387702785
0.1620335112192575
0.9902542444087293
0.9898124279462632
0.13977700459199893
0.2055689898761277
-0.0022672620934143725
0.4479077713280222
-0.004377169057321976
0.40478368982660334
0.20697180705239485
-0.004547812702710784
-0.000796851765098091
0.41719422929055916
0.43202588853854246
0.41908969452950057
0.5817330605907032
0.5790616920386679
0.0030655487680660352
0.5545261666567378
0.0018289720233811532
0.6844927698057109
0.142555140609055
0.6023169213872785
1.001883535844069
0.7874303349019518
0.18142652711508056
0.7848725635046432
0.19563921341493293
0.21548984842977012
0.795637841074706
0.9996318649253363
0.0010865270735188396
0.14567080302582058
0.8462887051790545
0.14387536584247376
0.3365896140370539
0.6142520943804094
0.81416205164166
0.13030862087621237
0.4115960650654682
0.4177676967744528
0.6020171058381498
0.5877213109719419
0.5837437033288025
0.02104272676050379
0.6538649845006861
0.14540539199002664
0.8504157580868451
0.8456853922761082
0.5807431433131837
0.4150358130529705
0.42660448912937754
0.003077784145929232
0.581825463761364
0.8489476990444238
0.14911084802475347
1.0081773806705916
0.21198739640494163
0.5742511021584368
0.6577061287900677
0.41847101445884655
0.851529867318864
0.5771739075705502
0.9992989418581265
0.4579500730149153
0.9868202746288669
0.98570570310653
0.8820931174266409
0.8637802676404125
0.9570160585042948
0.00879215445261701
0.42534954390278285
0.6946725243633183
0.5727749085370343
0.6726008662584801
0.38763199509460444
0.114156460943534
-0.0015493098496119088
0.4464109893089141
0.21154062916245991
0.8287032203002083
0.5518156584622684
0.44469653704397816
0.44802421320919883
0.8500808689344334
0.8640637618245748
0.14795950494214988
0.13689378512184008
0.8552377453429414
0.4200873431095345
0.9996683634543527
0.14350118342822948
0.8922498811419929
0.8940471553318454
0.3674184789850459
0.9091632993655275
1.0050534251593066
0.12961899249372139
0.162124909099486
0.6632695874963181
0.33144094511536204
0.6623799512180829
0.6754606165128909
0.09438481073567444
0.6506785689266463
0.34548962912920544
0.3439780041799324
0.006500930684785176
0.4761858197330536
0.270474166751055
0.7203594212220048
0.7483181183492381
0.349573994955495
0.8662907298009997
0.6518870645445394
0.6482434749885215
0.6271144684528913
0.007774265308989512
0.008480419060122969
0.1529930250255549
0.8107625854714423
-0.00411295811888939
0.916323654776764
0.9093361141758995
0.8359250169803741
-0.00431305989500852
-0.004840170975415931
0.19066951015314496
0.3545468610400622
-0.0009746447733175745
1.001157736855175
0.3417002151040596
0.8759891154692714
1.0004819554451125
0.8682128787703799
0.13331948843768837
1.0076221416960638
-0.0029848761563786154
0.1144987822978753
0.9950446052380477
-0.00115159866502572
0.32323577250089025
0.0001396535274704657
0.6813768936390248
0.003978111160140883
1.003039069345429
1.0055345296994929
0.12221182857777009
0.4931290941469408
0.16725083449718545
0.9977712871760693
0.877001292218922
0.9999369684180615
0.35017897568607403
0.999198105994949
1.0028228182434669
0.14060639424004848
0.09804831419800161
0.00013448853856860545
0.301203959192341
0.6412301207824693
0.5864943159495047
0.4115854302151812
0.5559051377970515
1.0050874172822484
0.2555685468183252
0.5687825274661977
1.0009641628532178
-0.00011265021896196397
-0.0023781032370632556
0.20127973593729842
0.4078316235155307
0.5740644525110697
-0.002288091197294102
0.9110945840017972
1.0073842555630308
0.8851251137875902
0.09850220538060209
0.9043956239198039
0.8956256618409582
0.6251502231644368
0.09110088446944921
0.8864646852087086
-0.0023198777995864484
0.29558668127813215
0.0026726467606147837
0.9207177368385846
0.076322149581893
-0.002328746164261339
0.5783607599712024
0.5403569861635248
1.0057446020473362
1.015209431702297
1.002826493279986
0.0013612335609552654
0.4383430965385764
0.6667575559990813
0.6694013066114608
0.6659337867599765
0.3331672138538965
0.3294881780128732
0.3399011381226304
0.9385962529658596
1.0351725167665853
0.9971824349762942
0.9940133506654059
0.9603075485773884
0.6853377279180273
0.7448739363246143
-0.0027275881296921086
0.06563117802080393
0.7768159828304566
0.6958965752384119
0.25804066858788116
0.872631761525422
0.09382747821816483
0.08516081691770126
0.7080532932986509
0.6087175135645847
0.43687642272954763
0.9981249259371622
1.002092139604955
0.7591570275610684
0.1037806526675434
0.9253392600762509
0.22771257647049215
0.9480519516295668
0.06040905301670218
1.0007942549746633
0.0019343090788331424
0.3794004775741992
0.6093534391372251
0.37234070451340534
0.8337317191025369
0.048191609320920974
0.5873332479084825
0.3756370782616108
0.822329399559289
-0.001678042112593303
-0.004186004324015159
0.18949068011515754
0.1869492064459414
0.061715222707431926
0.11772467092107369
0.9404314447999989
0.8206297098352879
0.17552746853974177
0.7855339050740856
0.22065387245796364
0.9068557624784672
0.8900612327571796
0.8890984221302483
-0.006279739208047894
0.9350590230008414
0.36113392367555225
0.2346248818011369
1.0011597866800996
0.18477498652988583
0.5513773310959057
0.7037243103212178
0.5987268882762555
0.638525213452417
0.04637048706358878
0.9455212999056205
0.9439841653602495
0.06727556618550462
0.6963860955460974
-0.0071815140605761005
1.0072677244101857
1.0047839202562783
0.03998625610240737
0.05534974976652864
0.8875905386154739
0.25464987592965893
0.9428082778111432
0.4616340848636414
0.8499238109430961
-0.0003945998465516834
0.626018510068879
0.365189768655309
0.3724400834682184
1.0017309237806555
-0.0027451111690894735
0.5573070712812185
-0.007661378339922158
0.41259530907660996
0.07157229636789285
-0.0013023812978704957
0.24696068385666003
0.6192111741271699
0.72032938760167
0.7691904480197131
0.9403575558438912
0.05472232833131449
0.25936866523154284
0.2019457231316722
0.75946332390761
1.005446992225656
0.23702822671749502
0.0783574201461904
0.20377228851559873
0.06027481526979486
0.9193744546426078
0.05299748522599454
0.21962529013552193
0.7707624694057976
0.7724513393477315
0.784111960377908
0.4106574101603065
1.0068854069414226
0.3836094090777838
0.910004209909669
-0.0019586985016246702
0.0550920081674887
0.045169076386970215
0.5900253707059756
0.08035154541744796
0.00217881619473421
0.05990998200308638
0.08151435111263584
0.4227943610065632
0.5581303462699565
0.03357879845590845
0.21065797331992228
-0.0018347557541645496
1.000496308860573
0.9145060779533273
0.43230182561949176
0.5625191260694302
0.6149180081155757
0.9281281459286822
0.05820945963349304
0.05440270657917477
0.998632975213066
0.034809927344735876
0.5061212733826629
0.3402901983736127
0.12144734981410317
-0.0014248460887277255
0.7787009257988015
0.9497713983605781
0.1559149921722797
0.1393215143922826
0.8343339315296954
1.0022709136887382
0.0474006964205156
0.9352499776183891
0.9346020548137022
0.45090901225230734
0.44527147447624554
1.0012672337945085
0.22054151485366838
0.3346932843226149
0.3852826658712386
-2.8100642441955356e-05
0.962638701550699
0.9634646438180283
0.24486299861136385
0.5871551616578019
0.8150558959143804
0.8176596819558799
0.1970123322762149
0.8173537056044934
0.25053496169402883
0.8668225895188646
0.866604839776299
0.6115776474365664
0.8836517618770114
0.6091010593855629
0.05846367967912698
0.9422963364540777
0.3981248324330124
0.607893619998166
0.3856018868691894
-0.009019694412367265
0.3140321516242552
0.05691368698763892
-0.0011866397635814296
0.5625737827880006
0.12576546618429466
0.2283614752548321
0.08612458310650932
0.7935539163559832
0.8628986671345044
0.9720301330392035
0.5767743732888228
0.0031745229444501053
0.4183520096841334
0.08194504832397768
0.9994949431012752
1.0006789652591062
-0.0015575462482238921
0.05776353967537885
0.9394921445410336
0.0004026529778617512
-0.00604867770647068
0.2503742040845838
0.7449340361523974
0.43723004725943815
1.0035763848626347
0.24873802909645262
0.8065243493755696
0.20994416464713236
0.7861897604372136
0.20733008447954848
0.9788159271878389
0.002112206414222326
0.41791308908100766
1.0012853981798984
0.9552535257755203
0.04772236359394599

SCALARS Omega double
LOOKUP_TABLE default
-7.676390534450933
-1.3125370194126897
8.448343180807864
15.921482027149601
36.50397645352529
-6.44831623737475
2.415798954690131
-4.521449033859108
-0.5030039382057581
1.7420863773373092
-0.17299164868497652
-0.9478299422764381
0.4238740051851225
1.3644554594825253
0.16140074752644518
0.9124430487491882
0.6187863912875168
0.8907727468578924
1.8519652281902823
-0.1757046229321821
1.5980635511131163
1.338493284653233
-0.7268672406311054
0.4689116667285567
1.094624161328158
1.0339926538295932
0.653834700619149
0.0991776462827044
0.4118044373898824
1.4893644490816622
1.1484062406338376
0.04413915082166286
1.384448391473602
0.853364247270755
0.43896474847931144
1.3133121646441417
0.8274594308003043
0.4341542543766275
1.5141019541653253
0.7610571491871992
1.5666569287581058
0.8062661796684287
0.4245257914753112
0.4218346609666193
1.075810750309603
0.8697142740420084
2.4873869982364174
0.551833928278863
-0.6507881993316247
2.4120262743017555
1.010285322640936
2.1220250865428616
9.769173622513982
-7.306259415247588
0.21386634817550795
2.093447756845231
1.2255759286266124
-0.03483060243187287
-0.4601450940665732
-1.8637398738362834
-2.6801191335312837
-2.07595864345187
-0.4811477520435093
-1.0583395774673965
-1.3095720205624561
-0.01963254228870149
-0.9082880382282437
-0.3818937121885623
-1.1564666025807595
-0.9171173755939819
-0.30141391113751664
-0.8245097387919726
-0.48609431272573866
0.22315948405940367
-2.0413526510065654
-0.6379696848203628
0.5774079324410817
-1.6522430349616115
-0.5537287559664363
-0.13742395575365232
-1.17543495091591
-0.833350339845169
-0.37980849875133305
-1.2197798261785222
-1.0367368724363932
-1.6549403305038322
-0.03500538916827283
-0.5457421292433067
-1.1943092573411949
-1.3265745693386624
-0.868930658254246
0.8339142907615629
-1.6700848017389756
-1.4545901448807497
0.29158860967907974
-0.9719057252937264
-1.2037571613277593
-0.06873698660694166
-0.5043947161013048
-1.6217842394970077
-1.6165039681022826
-0.33988664430707666
-1.9828532500224627
-0.448587589474121
-2.015294389842467
-0.4591926849593584
-0.051650502251626665
-2.0442402665623085
-1.8915676226111693
-0.8226920422797964
0.7485649532772081
-4.590526382253852
2.6447085165258173
0.3112587317536712
-0.023819059878077926
-0.8560841658843269
1.6539201043251173
-5.892745451191295
-2.3538187947257705
-42.5891634062398
-0.29154002007675417
0.13763452618830258
0.02486718204959744
-0.053854003771739455
-0.07031192175530922
-0.10613901980341696
0.053123136398898256
-0.3906494308838062
-0.7942245920887009
1.7222605465275826
1.3721590786591578
-1.6003255186540601
-1.4731833875401752
-1.3580866165136865
-1.5327784840594012
-1.1167811735174094
1.8786402596014833
1.5880331073202456
1.5078377237227205
1.9238326327469915
2.3058997354957165
1.9075200794898834
-2.00949877041245
3.058844521836045
-2.4936133359614
-3.0055666617029444
-3.1293320500649586
4.5410900941442875
3.136506000807662
3.422008492171214
-4.117693079895814
-3.350292694844061
-3.50399848278752
-3.263241264801351
3.384046399970839
2.976121914117404
3.3963441512074657
2.0034822811669724
4.02711251273345
-3.646064759084967
-1.705403083470065
-4.104994636717896
-4.419999452936802
-1.4447893517450727
-0.02600594610142619
0.2932903106663165
-6.583063102527
-5.426416184286895
4.798985985444245
-5.02374174700144
4.938107935301758
4.703782360040535
-1.0965682555829392
-5.019998959514248
0.08033156767555776
0.025799010421166682
0.014197722105564862
0.010822209159077395
0.01961899264477072
-0.09406949959008298
0.0752650275276997
-0.052961670029978036
0.019351625757233645
0.03559861232715997
0.03878732362844398
-5.709937998666129
5.713755464885105
7.660592268970778
-6.244509622434034
6.169047351185981
6.389464408290984
6.126729533530375
-5.99721978378078
5.8807007573697545
5.721037614204246
-5.974950140474971
-5.633717055152675
-6.599158343514498
7.076934624419791
6.10823410759921
6.016283214907045
0.06672227370759908
13.3311401522948
6.365781863644162
-6.114599699045051
1.243015002094639
2.0385599897457705
-1.129059610563705
-5.67964250060833
-2.3035050043751464
-6.55542516059164
1.1135546684096227
-1.153541008306495
-1.2481833125266297
-0.8978393001973516
0.7475613058808716
1.0274728942498326
-5.774555971883874
0.0754717250522299
6.670620207598923
0.7920282655639598
-0.8928420730237807
-0.7878669033297021
1.1008713605332623
5.95131339495082
-0.8133727711707176
-0.6950531901621153
0.2568851729637059
1.3504109989391315
-6.388890079588754
-1.8311935276735212
-6.68376372607042
-6.614031109987837
-7.044165968450492
-0.8571127814919021
-6.872183815408868
-4.548036310175701
1.6123374678477242
-1.2187656559887472
-1.2698176339055547
1.1503158902307937
1.2391608365108213
-1.0571278633772494
-0.6391253115933794
0.5133994045922207
0.5725792901290575
0.7072136179950784
0.9624808996656471
1.9735977023382842
6.74224784093776
-7.405792469874857
-8.66825938441886
-6.85749887918643
-9.264743759686278
7.1782862834423895
7.8620321247427984
-0.6118927029253222
7.501819744783768
-0.881911448631056
-0.7732158646859879
7.511524083780967
-6.334548443647446
8.801389010864604
6.7329257150245
-6.960847950254549
6.341136438261214
-0.9854025377807244
6.2170960158519435
7.899274802196938
-1.0121335787945622
-9.72121398076542
-10.856539533260992
-8.807450823901183
7.360060336948661
6.728366249988323
-1.0062886821024526
7.337011746611547
-1.8345589034646845
-9.092658015676987
0.8603826434196129
-0.7994512867580859
-1.010755777356256
23.59516191751328
-6.643935172763184
1.1229828620835238
-2.3088462248365706
2.560175585096787
1.9788611717063778
2.004509715223906
8.925401261257583
1.2804357674936797
-9.18480340375078
9.849747377375989
7.892556359878327
-1.481377500461811
-0.5006548431098745
-2.0526649076107186
8.323362421676217
-7.87056830367337
3.2726326794595275
-0.8771073192182333
-3.231576454515514
-0.4687464089480317
-7.261765391991084
3.28442557850601
8.711403313060668
6.51937137559548
-3.3162318843073706
-2.011179535503231
-10.880970611443006
-0.12170102410969141
-9.472726958436775
-1.4180276089438135
-1.9734575917467245
-9.886949241328663
-9.278587296811706
-0.30695652420120795
-0.23019706814525176
-0.25538590616633644
0.38705002660246773
0.27698978397303103
-8.783349022043312
0.8991733190304798
-10.66708364684531
0.9867933325279733
-3.209058189053072
-4.151663389850229
11.179868700054024
1.8347534953908464
-2.232169400322556
1.9024010294817766
-2.0766052520343377
-1.811963995525415
1.93788877168017
8.753148433697369
-7.710716307810549
-3.1237582732941456
2.8328032451928133
-3.1347256922295474
-0.5603581470504247
0.36436822068614677
3.697899028433709
-7.014149159949669
-0.2495904663020037
-0.2096907360556894
0.3515154023343508
0.3162515839008441
0.1850297664978641
-7.068694197153534
-8.047808066729361
-3.140050680271707
3.1050632134208564
2.8397743921817082
0.33096727274546667
-0.25939868268336946
-0.2721793855243414
-10.542720890075516
0.30895366258895146
2.8249663801483784
-2.9827813064290445
10.829644713882915
-1.9067930096516232
-0.3123385466733782
0.22982956248015352
-0.2426469750166467
3.179560295771985
0.21505503337891163
10.14955933080849
-0.09352130678044628
7.82918972969975
7.212972839486616
3.8793755266792873
5.13252584346379
4.0963529034222
-9.382016933261847
-1.2230264486357383
0.8425504341454589
0.27381171964446915
0.802630165166714
-0.5599426624574512
-3.9502578522164375
-10.019613593694627
-0.2158022384864473
0.7254759811603734
2.678253769298196
0.17936693597172673
-0.15216656975435383
-0.18330934657303877
5.315065034456841
3.806547955295059
-3.225029895294869
-3.1487860101834713