# vtk DataFile Version 1.0
2D Simulation C++
ASCII
DATASET UNSTRUCTURED_GRID
FIELD FieldData 1
NODES 1 2 int
715 1308

POINTS 715 double
0.0 0.0 0.0
5.0 0.0 0.0
5.0 1.0 0.0
0.0 1.0 0.0
0.10000000149011612 1.0 0.0
0.20000000298023224 1.0 0.0
0.30000001192092896 1.0 0.0
0.4000000059604645 1.0 0.0
0.5 1.0 0.0
0.6000000238418579 1.0 0.0
0.699999988079071 1.0 0.0
0.800000011920929 1.0 0.0
0.8999999761581421 1.0 0.0
1.0 1.0 0.0
1.100000023841858 1.0 0.0
1.2000000476837158 1.0 0.0
1.2999999523162842 1.0 0.0
1.399999976158142 1.0 0.0
1.5 1.0 0.0
1.600000023841858 1.0 0.0
1.7000000476837158 1.0 0.0
1.7999999523162842 1.0 0.0
1.899999976158142 1.0 0.0
2.0 1.0 0.0
2.0999999046325684 1.0 0.0
2.200000047683716 1.0 0.0
2.299999952316284 1.0 0.0
2.4000000953674316 1.0 0.0
2.5 1.0 0.0
2.5999999046325684 1.0 0.0
2.700000047683716 1.0 0.0
2.799999952316284 1.0 0.0
2.9000000953674316 1.0 0.0
3.0 1.0 0.0
3.0999999046325684 1.0 0.0
3.200000047683716 1.0 0.0
3.299999952316284 1.0 0.0
3.4000000953674316 1.0 0.0
3.5 1.0 0.0
3.5999999046325684 1.0 0.0
3.700000047683716 1.0 0.0
3.799999952316284 1.0 0.0
3.9000000953674316 1.0 0.0
4.0 1.0 0.0
4.099999904632568 1.0 0.0
4.199999809265137 1.0 0.0
4.300000190734863 1.0 0.0
4.400000095367432 1.0 0.0
4.5 1.0 0.0
4.599999904632568 1.0 0.0
4.699999809265137 1.0 0.0
4.800000190734863 1.0 0.0
4.900000095367432 1.0 0.0
5.0 0.8999999761581421 0.0
5.0 0.800000011920929 0.0
5.0 0.699999988079071 0.0
5.0 0.6000000238418579 0.0
5.0 0.5 0.0
5.0 0.4000000059604645 0.0
5.0 0.30000001192092896 0.0
5.0 0.20000000298023224 0.0
5.0 0.10000000149011612 0.0
4.900000095367432 0.0 0.0
4.800000190734863 0.0 0.0
4.699999809265137 0.0 0.0
4.599999904632568 0.0 0.0
4.5 0.0 0.0
4.400000095367432 0.0 0.0
4.300000190734863 0.0 0.0
4.199999809265137 0.0 0.0
4.099999904632568 0.0 0.0
4.0 0.0 0.0
3.9000000953674316 0.0 0.0
3.799999952316284 0.0 0.0
3.700000047683716 0.0 0.0
3.5999999046325684 0.0 0.0
3.5 0.0 0.0
3.4000000953674316 0.0 0.0
3.299999952316284 0.0 0.0
3.200000047683716 0.0 0.0
3.0999999046325684 0.0 0.0
3.0 0.0 0.0
2.9000000953674316 0.0 0.0
2.799999952316284 0.0 0.0
2.700000047683716 0.0 0.0
2.5999999046325684 0.0 0.0
2.5 0.0 0.0
2.4000000953674316 0.0 0.0
2.299999952316284 0.0 0.0
2.200000047683716 0.0 0.0
2.0999999046325684 0.0 0.0
2.0 0.0 0.0
1.899999976158142 0.0 0.0
1.7999999523162842 0.0 0.0
1.7000000476837158 0.0 0.0
1.600000023841858 0.0 0.0
1.5 0.0 0.0
1.399999976158142 0.0 0.0
1.2999999523162842 0.0 0.0
1.2000000476837158 0.0 0.0
1.100000023841858 0.0 0.0
1.0 0.0 0.0
0.8999999761581421 0.0 0.0
0.800000011920929 0.0 0.0
0.699999988079071 0.0 0.0
0.6000000238418579 0.0 0.0
0.5 0.0 0.0
0.4000000059604645 0.0 0.0
0.30000001192092896 0.0 0.0
0.20000000298023224 0.0 0.0
0.10000000149011612 0.0 0.0
0.0 0.10000000149011612 0.0
0.0 0.20000000298023224 0.0
0.0 0.30000001192092896 0.0
0.0 0.4000000059604645 0.0
0.0 0.5 0.0
0.0 0.6000000238418579 0.0
0.0 0.699999988079071 0.0
0.0 0.800000011920929 0.0
0.0 0.8999999761581421 0.0
0.7496038675308228 0.5164291858673096 0.0
1.3451675176620483 0.5190238952636719 0.0
1.9462687969207764 0.4963642954826355 0.0
4.456614971160889 0.5060901641845703 0.0
3.864220380783081 0.4866538345813751 0.0
3.249823808670044 0.482722669839859 0.0
2.6500000953674316 0.5 0.0
0.3810288906097412 0.399004191160202 0.0
2.308779239654541 0.3797946870326996 0.0
1.0499999523162842 0.6625000238418579 0.0
1.644740104675293 0.6598879098892212 0.0
4.150000095367432 0.3375000059604645 0.0
3.555316209793091 0.3343118131160736 0.0
2.9446933269500732 0.3401789665222168 0.0
1.6342840194702148 0.3290160894393921 0.0
1.0591840744018555 0.33908534049987793 0.0
2.9654481410980225 0.6753292679786682 0.0
3.5534629821777344 0.6835107207298279 0.0
4.153462886810303 0.6835107207298279 0.0
2.2139804363250732 0.6805098056793213 0.0
0.4914395809173584 0.6739721894264221 0.0
4.691666603088379 0.6916666626930237 0.0
4.691666603088379 0.3083333373069763 0.0
2.4872219562530518 0.7236665487289429 0.0
0.6240421533584595 0.2677222192287445 0.0
2.0697431564331055 0.2657754421234131 0.0
2.5389034748077393 0.26082900166511536 0.0
0.8147311806678772 0.7450684309005737 0.0
1.2897310256958008 0.743314266204834 0.0
1.8853894472122192 0.7450258731842041 0.0
4.382374286651611 0.23655959963798523 0.0
3.910269021987915 0.25668570399284363 0.0
3.1838724613189697 0.25397706031799316 0.0
1.398239254951477 0.2614254057407379 0.0
3.201760768890381 0.7385746240615845 0.0
3.8017609119415283 0.7385746240615845 0.0
4.39177942276001 0.7466779351234436 0.0
0.25301694869995117 0.7458874583244324 0.0
2.7258167266845703 0.7600342631340027 0.0
0.84163498878479 0.2263137847185135 0.0
0.22429518401622772 0.22429518401622772 0.0
2.7605957984924316 0.22504857182502747 0.0
1.8330284357070923 0.2150011658668518 0.0
0.2192869633436203 0.5323538780212402 0.0
4.7908525466918945 0.5038931369781494 0.0
2.466000556945801 0.5376454591751099 0.0
3.7061264514923096 0.17723728716373444 0.0
3.3929696083068848 0.20266839861869812 0.0
1.4905184507369995 0.7937026619911194 0.0
1.2104878425598145 0.20361483097076416 0.0
3.9895122051239014 0.7963851690292358 0.0
3.389512300491333 0.7963851690292358 0.0
0.5652223825454712 0.5070380568504333 0.0
0.44509074091911316 0.19716571271419525 0.0
2.1318352222442627 0.5042122602462769 0.0
1.548349142074585 0.4954715371131897 0.0
3.050636053085327 0.5004673004150391 0.0
0.9511125087738037 0.498258113861084 0.0
3.651650905609131 0.5045284628868103 0.0
4.248488903045654 0.4980509281158447 0.0
1.1537858247756958 0.49593159556388855 0.0
4.050199031829834 0.49993085861206055 0.0
3.464722156524658 0.509624183177948 0.0
1.749653697013855 0.5001751780509949 0.0
2.851828098297119 0.5057260394096375 0.0
2.359710216522217 0.1888567954301834 0.0
2.0499017238616943 0.8199846148490906 0.0
0.6430503129959106 0.8181284070014954 0.0
4.560274600982666 0.1724673956632614 0.0
4.55863094329834 0.8299665451049805 0.0
2.321284055709839 0.8242537379264832 0.0
4.815218925476074 0.8345447778701782 0.0
4.837246894836426 0.16590170562267303 0.0
0.9682294130325317 0.8331464529037476 0.0
1.730908751487732 0.827606201171875 0.0
4.220076560974121 0.17516615986824036 0.0
3.02066969871521 0.18326662480831146 0.0
1.5634372234344482 0.17044226825237274 0.0
3.035303831100464 0.8294908404350281 0.0
3.627507209777832 0.8360387086868286 0.0
4.2312469482421875 0.8315803408622742 0.0
4.618130683898926 0.5361976027488708 0.0
0.40311703085899353 0.8369210362434387 0.0
1.1473191976547241 0.8458209037780762 0.0
4.052680969238281 0.15417908132076263 0.0
2.020958423614502 0.6394158005714417 0.0
0.662188708782196 0.6447370648384094 0.0
4.5115838050842285 0.3538685142993927 0.0
1.0221220254898071 0.15309639275074005 0.0
0.3837882876396179 0.5515117049217224 0.0
3.548090934753418 0.15800617635250092 0.0
1.4348299503326416 0.6465393304824829 0.0
3.765170097351074 0.3534606993198395 0.0
3.3348300457000732 0.3534606993198395 0.0
1.2546738386154175 0.36384353041648865 0.0
3.945326089859009 0.636156439781189 0.0
3.3412928581237793 0.637225866317749 0.0
2.1904795169830322 0.17066854238510132 0.0
0.16392111778259277 0.38331863284111023 0.0
2.87723445892334 0.8265392184257507 0.0
4.8459792137146 0.6499902606010437 0.0
4.845625400543213 0.34837812185287476 0.0
2.771622896194458 0.38129922747612 0.0
4.5222978591918945 0.6578375697135925 0.0
2.604464530944824 0.8240283727645874 0.0
1.8544400930404663 0.3751189708709717 0.0
0.8566747903823853 0.38255012035369873 0.0
2.2932615280151367 0.5369129776954651 0.0
2.620572805404663 0.6496497392654419 0.0
0.7172287106513977 0.1490369737148285 0.0
0.1410960853099823 0.8303417563438416 0.0
1.7142322063446045 0.142862930893898 0.0
2.6314175128936768 0.14492936432361603 0.0
1.9832650423049927 0.1408119648694992 0.0
2.445650577545166 0.370038241147995 0.0
2.885042667388916 0.1455758661031723 0.0
0.13937503099441528 0.6546638011932373 0.0
0.9110832810401917 0.6349053978919983 0.0
3.088575839996338 0.3613528311252594 0.0
4.296638011932373 0.3563385307788849 0.0
1.1930090188980103 0.6355591416358948 0.0
1.788455843925476 0.6387236714363098 0.0
4.006990909576416 0.3644408583641052 0.0
1.4459187984466553 0.39242905378341675 0.0
4.354081153869629 0.6075709462165833 0.0
3.7540812492370605 0.6075709462165833 0.0
3.1591691970825195 0.6018876433372498 0.0
2.7615907192230225 0.6205627918243408 0.0
2.36276912689209 0.6735464930534363 0.0
1.3681535720825195 0.8630191683769226 0.0
3.8318464756011963 0.1369808316230774 0.0
3.275517463684082 0.10712132602930069 0.0
0.5630941987037659 0.12814241647720337 0.0
1.3237862586975098 0.10638008266687393 0.0
3.2733232975006104 0.8705052733421326 0.0
3.8733232021331787 0.8705052733421326 0.0
2.0396511554718018 0.38928428292274475 0.0
2.2168734073638916 0.8508136868476868 0.0
0.5163488388061523 0.3409615159034729 0.0
0.6547463536262512 0.3955095112323761 0.0
1.9480526447296143 0.8710126876831055 0.0
4.689375877380371 0.13700176775455475 0.0
4.698264122009277 0.8675068616867065 0.0
0.7578787803649902 0.8698469996452332 0.0
2.479548454284668 0.13692785799503326 0.0
2.4562506675720215 0.8735422492027283 0.0
2.171211004257202 0.3573116958141327 0.0
3.5117530822753906 0.853193998336792 0.0
4.107914924621582 0.8658969402313232 0.0
2.640726327896118 0.354434996843338 0.0
4.346996307373047 0.1279495507478714 0.0
0.3128283619880676 0.11246757209300995 0.0
0.136248379945755 0.12152919173240662 0.0
4.453908443450928 0.8629162907600403 0.0
1.6064813137054443 0.8679171800613403 0.0
0.3380795121192932 0.6626779437065125 0.0
0.5102446675300598 0.875635027885437 0.0
0.7425088882446289 0.2989330589771271 0.0
3.1349449157714844 0.10448489338159561 0.0
1.3287748098373413 0.6181886196136475 0.0
3.871795415878296 0.38215625286102295 0.0
3.229135036468506 0.3810797333717346 0.0
0.28971707820892334 0.8759857416152954 0.0
0.9214505553245544 0.11992674320936203 0.0
1.9219478368759155 0.6237660050392151 0.0
1.530794620513916 0.29603153467178345 0.0
3.072223663330078 0.7044162750244141 0.0
3.6722235679626465 0.7044162750244141 0.0
[...]
POINT_DATA 715
SCALARS Psi double
LOOKUP_TABLE default
0.0
0.0
1.0
1.0
1.0
1.0
1.0
1.0
1.0
1.0
1.0
1.0
1.0
1.0
1.0
1.0
1.0
1.0
1.0
1.0
1.0
1.0
1.0
1.0
1.0
1.0
1.0
1.0
1.0
1.0
1.0
1.0
1.0
1.0
1.0
1.0
1.0
1.0
1.0
1.0
1.0
1.0
1.0
1.0
1.0
1.0
1.0
1.0
1.0
1.0
1.0
1.0
1.0
0.9167175544677724
0.857194537774221
0.7536115866533756
0.6244594493875457
0.48092821332166624
0.33495519306109306
0.1992280950677703
0.08803999670958192
0.024209292271092506
0.0
0.0
0.0
0.0
0.0
0.0
0.0
0.0
0.0
0.0
0.0
0.0
0.0
0.0
0.0
0.0
0.0
0.0
0.0
0.0
0.0
0.0
0.0
0.0
0.0
0.0
0.0
0.0
0.0
0.0
0.0
0.0
0.0
0.0
0.0
0.0
0.0
0.0
0.0
0.0
0.0
0.0
-0.0
0.0
0.0
0.0
0.0
0.0
0.0
0.027380119969080054
0.10776509679714774
0.2093197386178475
0.3109652949652078
0.41254429522879427
0.5108718400657131
0.6026821533945357
0.6785067695697035
0.6416522331765536
0.5299829645503791
0.5315183091966915
0.5016688790414645
0.49756261751268094
0.4708823504362702
0.47036932068309273
0.5099212704345778
0.3213873398783773
0.32421517412149004
0.7538580782466017
0.7452817817579119
0.24504811787522782
0.2389375090783759
0.25947440186209875
0.24148025049086763
0.2634177744345263
0.7769063582889011
0.7706056917441061
0.7691592955635593
0.784498547755061
0.7599313542213302
0.772648926936801
0.2014533612412062
0.8418837881139037
0.1596555437630386
0.16112327022486245
0.1543090416850615
0.8723108403642832
0.8571507265490536
0.8637802322821705
0.10486976401247262
0.13718246975083995
0.13332010624559204
0.14458347789066614
0.8542646609196387
0.8468580294110414
0.855615550777231
0.7938122823456062
0.8901630490610639
0.1160583028538474
0.1113090308795567
0.1070907491566165
0.09389693516636491
0.46487066119518916
0.4893377606747416
0.5692006072897927
0.04559150215050593
0.06862398716303794
0.9171528448727304
0.07437857933991879
0.9147623612361765
0.9150592888585418
0.4972777009890188
0.07119372058184029
0.5162946130972138
0.49489914805946833
0.504143162491868
0.5065846781534219
0.4989732316371047
0.48640939116168663
0.49957190676917873
0.4904719111286243
0.5080826525908521
0.5044968038401925
0.5168214565998923
0.06453872668795621
0.9490841157961762
0.9586676882083864
0.044155682002870525
0.9483349840890115
0.9560342538173543
0.9358763249392589
0.03791568727943389
0.9579493676213533
0.9507973300521126
0.04623443735843012
0.05736633801720041
0.045663044125809855
0.9613656979244092
0.9555205574220258
0.9519037032485232
0.542001858094688
0.9791035993462315
0.9652273185671872
0.034318426674207786
0.7212271661891532
0.7309899701242474
0.266075310670997
0.03929816428505641
0.5303304539510477
0.032065833970829995
0.7242595507277708
0.26784536258270947
0.26920324078952934
0.29385106622101176
0.6990122415099376
0.7059785250677542
0.050836243634280874
0.294934539722849
0.9614029886444797
0.70253832211104
0.25670538208636723
0.3248827865112895
0.7293315938588288
0.9556899739440121
0.313908858672756
0.3287007322208307
0.5678403488216898
0.7397662525465863
0.038176978925403025
0.8226414765053391
0.029501870269934748
0.031148925537192687
0.02908753513656097
0.30984595269762577
0.02895521186713548
0.5838969648604753
0.7176281937187831
0.2870577488809239
0.27037077455364406
0.7106364402514692
0.7163986140161221
0.2856051711374643
0.33552724100889914
0.6547088549212214
0.6569746356377697
0.6590035725399923
0.6957163354541901
0.7737268311965174
0.9750360759761915
0.020132755273369336
0.0004116589504028558
0.021103699121716078
0.00034612351789764815
0.9787503275991457
0.9798009853578681
0.33833475338401453
0.9748662902311446
0.25169877019865355
0.33850899143312424
0.9844159591127153
0.0235018193737609
0.9766456739073419
0.984581251722178
0.025899720220695966
0.9830748605426506
0.29066050213441436
0.9649099255516865
0.9768175539628039
0.286036096333723
0.0062994811116853545
0.005891664207415798
0.02261492904503611
0.9748652415940379
0.9781708691963108
0.6948828740169939
0.9931789650982494
0.20558660755215366
0.0019654948296973247
0.6824302094826776
0.311937882008537
0.31335352014913354
1.018555578283836
0.02302560698024708
0.6960283117581121
0.1933386197646991
0.8144162723558958
0.7995881051451055
0.7985275419692314
1.0082785266873775
0.6823333240436771
0.004186859408936755
0.9943494498926552
0.9939330643170211
0.1552473773812308
0.3460163168859353
0.20054784783783194
0.9954183645262052
0.00392546252528995
0.8562484193251271
0.3098435230700619
0.13479301639709068
0.3413592099006946
0.013278214238154543
0.1620862893626355
0.9902635212010952
0.9896569246338425
0.14043566448699552
0.20652939250861427
-0.002330193325744536
0.44794005131600795
-0.004438591922556474
0.4048751316632308
0.2078131942917525
-0.004577145941974711
-0.0009252188805877005
0.4177073888534115
0.4323010771224752
0.4195573020605299
0.5807050377212364
0.5785510897179463
0.003070742644801565
0.554425975230693
0.0018528199676095805
0.6834998528868474
0.14328890492415128
0.6024526518939738
1.001924362738
0.786472540301499
0.1819797498075447
0.783777998918477
0.19671348031896957
0.2165151824508924
0.794574930898488
0.9996715500946345
0.0010374678381646464
0.14658642845634393
0.8452054417034137
0.1447812560058805
0.337078194815676
0.6139342575811587
0.8132635607524176
0.1315732580484211
0.4119096673783256
0.41772249915636567
0.6014914510257632
0.5872550733999122
0.5834162510201625
0.02120132994936581
0.6539299336474084
0.14591141620767367
0.849420386481465
0.8447568553067775
0.5797576464639873
0.4155026709958924
0.4269757817925041
0.00300902277355098
0.5813553502185488
0.8473708144669764
0.150072912748815
1.0083432192958306
0.21273508765175847
0.5742234569046638
0.6576380340274351
0.4191708315932037
0.8506754268455265
0.5765741647640468
0.9993010420143295
0.45793126128577333
0.9867264269661743
0.9855618771277574
0.8813224525122438
0.8630323241611038
0.9569104208755452
0.008957183572681767
0.4257140384608861
0.6937911914791751
0.5723068214252613
0.6717250369556129
0.38845648483569656
0.11481851957396244
-0.001602194365875871
0.4468894023771925
0.2116234970626933
0.827754278493526
0.5512270761973315
0.44501357145334497
0.4483248036554898
0.8497150451822566
0.8625061329563841
0.1487788064767699
0.1378222470339319
0.8544213848043776
0.4202940170567799
0.9997231708224039
0.14379838167087838
0.8914477460820445
0.8933409636396659
0.36792857205304946
0.9086325582618922
1.005273500775098
0.13060853002742465
0.16326926218983184
0.6626582895620857
0.3320002081019837
0.6615837555726437
0.6746820567141947
0.09509788901430323
0.6498088005875226
0.3462700968047808
0.344793977215297
0.006497917858877607
0.4761499029057713
0.27099844101037757
0.7194275344171858
0.747318471073411
0.3502083526419228
0.86535930059382
0.6511355051179777
0.6475919973190938
0.6267591343125554
0.00774729270892865
0.008578441008391323
0.15418010448414193
0.8099367270485114
-0.004228909871864139
0.916328727865796
0.9087316383449899
0.8352573973277292
-0.004358833960903732
-0.005021091785452102
0.1908514171797924
0.35514852101522243
-0.0010673475659649346
1.0012261491882228
0.34233692792088566
0.8753958262090907
1.0005184010593358
0.8666625866792912
0.1341894203764783
1.0077736236833363
-0.003066390876733227
0.11505662132882469
0.9950295802800706
-0.00120008268697522
0.3235466147818607
8.133433686982291e-05
0.6808460497869846
0.003999172006944601
1.0031190114241368
1.0056155188875708
0.12303667461798203
0.49320745168630536
0.16803583118502521
0.9977929121502112
0.8761365439005786
0.9999566468006793
0.3511752205208934
0.999183539006413
1.0029159879537495
0.14119240521720047
0.09879446128988707
0.00014456786407135907
0.3023475791748718
0.6403794649940754
0.5867063637138177
0.4115115427622441
0.5556455281340493
1.0051656421838127
0.2556362664737891
0.5687095310685678
1.0010065892049218
-0.00014438120890741582
-0.002496641985015137
0.20209045049639796
0.40808900921526897
0.5734746607387554
-0.0023188961978982876
0.9105329289356358
1.0076042489140475
0.8852277256971691
0.09907051213701445
0.9037191563577776
0.8948755268862554
0.6243850990964944
0.09190324599918501
0.8858868705689341
-0.0023354731908951576
0.29625477038748854
0.002669388469212603
0.9198475815994929
0.07692737654523972
-0.0023852059860318005
0.5779433220095247
0.5405492435656206
1.0058913935948026
1.015230568801237
1.0029537292759765
0.0013768459313950054
0.43858390384002766
0.6653685603970049
0.6679032349997447
0.665130689281844
0.33403250473570856
0.3303349585491815
0.340579266058699
0.9380796471600077
1.0351097232109918
0.9971590054513085
0.9939657589413028
0.9600672006303445
0.6854793930840045
0.7437545810990958
-0.0027884366401221667
0.06584127093636796
0.7757560423785377
0.6951735209016237
0.25929707585048817
0.8726380436981
0.09436307769027709
0.08579930125854503
0.707047081294054
0.6081888289138149
0.43710276703793743
0.9981268228511447
1.0021557506908467
0.7584311608242041
0.10434101026043702
0.9248275102593092
0.2285105319109812
0.9477719012763319
0.06077754261284946
1.0008540344943937
0.0019186654317555566
0.3798269324012201
0.6090226976850658
0.3727612426905442
0.8338091120299667
0.04863136007997873
0.5867255828206933
0.37575859984210885
0.8214022258427431
-0.0017034117850270448
-0.004220532726921659
0.18955058877544248
0.18782584850551756
0.062172171938492574
0.11844114163615009
0.9395720911651514
0.8191829065515994
0.17649945465804698
0.783820606807526
0.22170238306602988
0.9068942571590032
0.8893140569640688
0.8882454794861476
-0.006447232137092609
0.9346515861407417
0.36162594966465983
0.2354888886775732
1.001237253215326
0.18567973369684349
0.5511104619601573
0.7030562623336217
0.5981890411396755
0.6380768134232576
0.04655822535374473
0.9450429570683089
0.9435429744706555
0.06795056696961917
0.6964784530211766
-0.007290588880671278
1.0073568046449093
1.0048481267626628
0.04022794513352285
0.056075923028875915
0.8871061339171323
0.25519022230677874
0.942530607597219
0.4621101753304756
0.8490005752570131
-0.0003827460274289746
0.6250624129195115
0.3658516713311703
0.37307419446460854
1.001757009825817
-0.00278090388300753
0.5573748781200791
-0.007706162413129291
0.412618093606705
0.07187908687754106
-0.001335450953029524
0.2479210025320173
0.6185833115733611
0.7203811158891458
0.7682353029910527
0.939756085924211
0.05518802674840239
0.2601682144919247
0.2030451782427375
0.758058361363863
1.0055055545567055
0.2376899515783913
0.07886380418025957
0.2049268218767388
0.06057779850936407
0.9187827950889381
0.05342511239107319
0.2203328906158031
0.769972671592645
0.7714420155389059
0.7831298047991662
0.4108853839849468
1.007126647988304
0.38442234780190876
0.9094149259497553
-0.002007225037717052
0.055430090552321704
0.04545931770499802
0.5894732128196952
0.08093579454546786
0.002189012685375159
0.05994240362948709
0.08151827553867314
0.4229437898243626
0.5580620507288009
0.03376728830469592
0.21138409941073658
-0.0018329295459332178
1.00053643877703
0.9136590011639352
0.43233857799542746
0.5622048347583327
0.6143280061115229
0.9275287297336812
0.058680272857230514
0.054773890153431024
0.9986694683147692
0.035111388255368574
0.5062248945831432
0.34077727634161964
0.12196555223908068
-0.0014614917198692151
0.7775909384461999
0.9497500341315827
0.15686323103387348
0.14021867809867727
0.8333098378579614
1.0023162315407559
0.04753443958092402
0.9346852101086814
0.934106286721869
0.4510426195239757
0.44564690240105187
1.0012901198698487
0.22134658586363465
0.33477010510361144
0.3859906186417862
-2.7938001045712405e-05
0.9623310412240463
0.9631132473098093
0.2450059308626136
0.5867178899384756
0.8141263668824462
0.8166298888497923
0.1975241483026899
0.816420358183
0.2512875377112672
0.865929326287123
0.8658311199948717
0.6106204814220451
0.8829673501732265
0.6085397650975153
0.058913616887405915
0.9414507984914186
0.3985800593562537
0.6067398169554126
0.3861949600594299
-0.009128217306778035
0.3143857169504351
0.05698347580093669
-0.00122438480286054
0.5624482145064805
0.12651697036259574
0.22906991866010698
0.08615820251009276
0.7924377147645049
0.8619882305931725
0.9718140146969475
0.5763882468717673
0.003200833687782862
0.4190510426370281
0.08246051554374592
0.99950536351187
1.000711824653413
-0.0016195245782822166
0.057741688774753115
0.9391430255240855
0.0004169504512146145
-0.00615198800046088
0.2513748717476155
0.743471491651077
0.43742742468033874
1.0036281394307716
0.2499874297498248
0.8055829010167447
0.21094000653013084
0.7848965845258045
0.20833376345802643
0.9788187988144108
0.0021473411032692426
0.41810883772058505
1.0013801179943618
0.9549164676585986
0.047992355186012504

SCALARS Omega double
LOOKUP_TABLE default
-7.678018695907368
-1.318683875214851
8.442174882749002
15.922832641938875
36.49530176585876
-6.44246281467649
2.405735097121192
-4.548100182487784
-0.5200270309726573
1.7275882928600184
-0.19290218891629363
-0.9799454848143424
0.43860803590118574
1.401691289796842
0.17673936600496945
0.9177174476165683
0.6289459690394038
0.8955331550003873
1.8684664779876088
-0.1810437798375289
1.6083279203212852
1.3420888006826925
-0.7527768265249939
0.46648069783778023
1.0994802330242435
1.0335833590568484
0.6466148858461745
0.08990658535507347
0.4107478405322102
1.499540467092685
1.1487340536236184
0.031411283002041615
1.383039892059753
0.8512095503830015
0.4404060567880662
1.330399146105294
0.8358912585409032
0.43973232664595985
1.5285742655176968
0.7672140460235563
1.5767801244677582
0.8120397343030581
0.4227087379835015
0.42732993610464126
1.0838453733358508
0.8816383500410596
2.5079162223179328
0.5566291759479453
-0.6654326058133067
2.4190905387313943
1.0169699633446136
2.1409257436191327
9.783827792750863
-7.274993817371625
0.1947811314752176
2.054128831250469
1.2075846256055656
-0.03563058808639956
-0.43677455503977436
-1.8248855103134254
-2.648086872959979
-2.0980034932631813
-0.49529247842562546
-1.08638183633896
-1.3235305556166432
-0.015531739564672438
-0.9232607099231283
-0.3852635116381787
-1.1621176602053922
-0.9237899710215866
-0.30112299501681505
-0.8321819325347619
-0.49053725270293697
0.2292698404349799
-2.0631785300646315
-0.6376281906147901
0.5860943901800583
-1.6674467164957743
-0.5515389548778341
-0.12053042386576487
-1.1800836958338565
-0.83279558174086
-0.36786718351491154
-1.2216011516124572
-1.043863625486904
-1.6668554258664403
-0.025649713369406555
-0.5414562380473398
-1.2030612894441477
-1.3370781762156514
-0.8747136253692833
0.8402515836686868
-1.6873145020604676
-1.4700178042757945
0.2916163966300119
-0.9811443624458726
-1.2109156936262915
-0.05416514386047757
-0.49478763818861377
-1.6248796571921376
-1.6232943656444414
-0.3442001590278439
-2.000379525885561
-0.45075448087139364
-2.0204070306941206
-0.4541293961266148
-0.03551988599901951
-2.0389090636795224
-1.885979091849483
-0.8246334569184113
0.7462325870111519
-4.589606842505334
2.6445683624228398
0.3110398313251554
-0.024445635381160725
-0.856223441721022
1.6538979816186878
-5.8948801224761205
-2.3577626280397084
-42.581795568245305
-0.26374442204819304
0.11880616591687378
0.022028557325397713
-0.049212036539445066
-0.060761154947087566
-0.0952128338017009
0.04544064976399355
-0.38928241101086875
-0.7423458828415788
1.6036267648157991
1.3018614023502981
-1.5297757458829209
-1.3821080317099605
-1.2833247430698955
-1.4532731156296803
-1.050106491729988
1.8047514423491633
1.5003264144056925
1.4269609819051616
1.8382907728153133
2.291372240914565
1.839563177933412
-1.924578338616313
2.9849477810289455
-2.4623067684347295
-2.941981756780383
-3.0684625432137014
4.421705839950835
3.071469150418905
3.3625586248466863
-4.06510566694532
-3.283952238183259
-3.4292179197444614
-3.1983205518577984
3.3144133259342055
2.9038637765754816
3.3401387185673515
2.0106033592464234
3.9740989049966386
-3.5895180425047557
-1.7074460020145141
-4.062646046982315
-4.373348386260673
-1.445344717969354
-0.02335375446935738
0.2640743878015904
-6.595973534120229
-5.408308151849195
4.782234551281564
-5.019165320736257
4.905158739760445
4.665298736395921
-1.0591698848337807
-5.040062621135167
0.07218412547432525
0.023868731668663292
0.013026038050581851
0.018246371095223837
0.02134465354323437
-0.08668478011643539
0.06765160610745032
-0.04900791016071441
0.01695204598521604
0.03233001134968566
0.03088842031482292
-5.708990605864424
5.724740468925396
7.670590908297278
-6.259651600007357
6.1918544215325095
6.421726166786508
6.112171953002325
-6.015983913387405
5.867968135905899
5.73994109821452
-5.996890164663641
-5.63312817195976
-6.603170965896302
7.107710140502078
6.125528944352904
6.017824007749902
0.056753963982266044
13.359102058185732
6.4103332955166445
-6.143954191697404
1.1725611383276913
1.989052104809909
-1.0503479233432014
-5.694509935594957
-2.28310048960084
-6.591399745357234
1.0453885067007231
-1.0796117411192945
-1.163691644028354
-0.8429379844206164
0.6818539202092371
0.9555806544091823
-5.779389109823345
0.07325326533822563
6.7144340138512595
0.7310099279486069
-0.8203870494478256
-0.7349885919901932
1.034437258478452
5.962675386074594
-0.7554663659928267
-0.637016486820299
0.2294350737013142
1.2664360740877534
-6.4108617206085
-1.8167808748918568
-6.70997783857581
-6.63702562297797
-7.082176390947681
-0.7997670455845028
-6.923768632380611
-4.552861825492914
1.511327535992078
-1.1509050059938999
-1.1982604025354386
1.062043416761225
1.176509603999652
-0.9922486014343468
-0.5918183033115638
0.4657426627959377
0.5179696245204636
0.6534044117505861
0.8940098687836167
1.8966377018736154
6.80030126253521
-7.459570257711307
-8.778455328484432
-6.893670129309582
-9.34343577872347
7.230688100721822
7.919826231790649
-0.5620974316935806
7.57010557723792
-0.8696887679872326
-0.7329563334823415
7.58037477272291
-6.384309181039716
8.857472221664413
6.81141057508095
-7.004636030717442
6.3994036703632124
-0.9222455937667815
6.243145575998842
7.940686727575031
-0.9471687681821724
-9.80358894491447
-10.866093096953447
-8.807755011789702
7.4046441368916405
6.7760781369039425
-0.99877945489034
7.4115229212861875
-1.777922119673108
-9.211213259041006
0.7940339387492331
-0.740099358488988
-0.9461474525107191
23.5821895023222
-6.675427736354268
1.0635828592819667
-2.2276581556516764
2.4861303754477393
1.8924975922810716
1.9267907001008138
9.052733614371677
1.2256732124697045
-9.261664314188423
9.942557605110052
7.956428649202237
-1.487997309964901
-0.4481256432201346
-1.97423097507063
8.417740629791505
-7.947612498758723
3.2100658951513075
-0.81257395521345
-3.1761994067723975
-0.47078509168666
-7.309899988032994
3.285802490462114
8.8069499227697
6.623126651570199
-3.257555612314257
-1.9297463925129357
-10.950784370911247
-0.10945455125726758
-9.55392165519374
-1.4199189675848278
-1.8954588813610416
-9.972834414580232
-9.405736220857785
-0.27908338140413036
-0.20787054772965122
-0.22371637928806717
0.35050766892559754
0.2503544736209888
-8.884351641590506
0.8680975483046314
-10.759703423117564
0.9215054197684728
-3.1435224294021777
-4.15005498853826
11.273209530157434
1.7547235724523789
-2.1698143149980242
1.817149339798098
-1.9771288005194685
-1.7280318688671454
1.8649096388969695
8.934715972073825
-7.806590838983059
-3.0553462911506415
2.769402401792805
-3.0454200247484158
-0.5042752885351496
0.33063582876358427
3.560032099657023
-6.863132055108462
-0.22293538502233767
-0.1823965993161091
0.3162863714356619
0.2859985419768079
0.1603230182283255
-7.102531121563788
-8.051995706057012
-3.0862956622903273
3.0242151626524647
2.760249858749187
0.29216054223493904
-0.23244557884678047
-0.24565840633076344
-10.641976236033186
0.2803862818300384
2.7074648943036808
-2.9103273094479856
10.936700688743993
-1.8333270752160993
-0.29121313371962676
0.23225487676678472
-0.2126972721599646
3.1131339835370846
0.20747030862414953
10.246456448415678
-0.08428479847523719
7.903712664067052
7.2778093137990565
3.8311951265495043
5.036976284010043
4.178036599861386
-9.469229552956108
-1.1994404274665345
0.7749116030715275
0.24751772204020128
0.7425622425710863
-0.5115938054838262
-3.8981301896532488
-10.042559467982944
-0.19496941413474175
0.7233778147251343
2.59992774558941
0.157886751338017
-0.13256850364311304
-0.16450277782061776
5.257080634853702
3.668628627606089
-3.154471583118532