# vtk DataFile Version 1.0
2D Simulation C++
ASCII
DATASET UNSTRUCTURED_GRID
FIELD FieldData 1
NODES 1 2 int
715 1308

POINTS 715 double
0.0 0.0 0.0
5.0 0.0 0.0
5.0 1.0 0.0
0.0 1.0 0.0
0.10000000149011612 1.0 0.0
0.20000000298023224 1.0 0.0
0.30000001192092896 1.0 0.0
0.4000000059604645 1.0 0.0
0.5 1.0 0.0
0.6000000238418579 1.0 0.0
0.699999988079071 1.0 0.0
0.800000011920929 1.0 0.0
0.8999999761581421 1.0 0.0
1.0 1.0 0.0
1.100000023841858 1.0 0.0
1.2000000476837158 1.0 0.0
1.2999999523162842 1.0 0.0
1.399999976158142 1.0 0.0
1.5 1.0 0.0
1.600000023841858 1.0 0.0
1.7000000476837158 1.0 0.0
1.7999999523162842 1.0 0.0
1.899999976158142 1.0 0.0
2.0 1.0 0.0
2.0999999046325684 1.0 0.0
2.200000047683716 1.0 0.0
2.299999952316284 1.0 0.0
2.4000000953674316 1.0 0.0
2.5 1.0 0.0
2.5999999046325684 1.0 0.0
2.700000047683716 1.0 0.0
2.799999952316284 1.0 0.0
2.9000000953674316 1.0 0.0
3.0 1.0 0.0
3.0999999046325684 1.0 0.0
3.200000047683716 1.0 0.0
3.299999952316284 1.0 0.0
3.4000000953674316 1.0 0.0
3.5 1.0 0.0
3.5999999046325684 1.0 0.0
3.700000047683716 1.0 0.0
3.799999952316284 1.0 0.0
3.9000000953674316 1.0 0.0
4.0 1.0 0.0
4.099999904632568 1.0 0.0
4.199999809265137 1.0 0.0
4.300000190734863 1.0 0.0
4.400000095367432 1.0 0.0
4.5 1.0 0.0
4.599999904632568 1.0 0.0
4.699999809265137 1.0 0.0
4.800000190734863 1.0 0.0
4.900000095367432 1.0 0.0
5.0 0.8999999761581421 0.0
5.0 0.800000011920929 0.0
5.0 0.699999988079071 0.0
5.0 0.6000000238418579 0.0
5.0 0.5 0.0
5.0 0.4000000059604645 0.0
5.0 0.30000001192092896 0.0
5.0 0.20000000298023224 0.0
5.0 0.10000000149011612 0.0
4.900000095367432 0.0 0.0
4.800000190734863 0.0 0.0
4.699999809265137 0.0 0.0
4.599999904632568 0.0 0.0
4.5 0.0 0.0
4.400000095367432 0.0 0.0
4.300000190734863 0.0 0.0
4.199999809265137 0.0 0.0
4.099999904632568 0.0 0.0
4.0 0.0 0.0
3.9000000953674316 0.0 0.0
3.799999952316284 0.0 0.0
3.700000047683716 0.0 0.0
3.5999999046325684 0.0 0.0
3.5 0.0 0.0
3.4000000953674316 0.0 0.0
3.299999952316284 0.0 0.0
3.200000047683716 0.0 0.0
3.0999999046325684 0.0 0.0
3.0 0.0 0.0
2.9000000953674316 0.0 0.0
2.799999952316284 0.0 0.0
2.700000047683716 0.0 0.0
2.5999999046325684 0.0 0.0
2.5 0.0 0.0
2.4000000953674316 0.0 0.0
2.299999952316284 0.0 0.0
2.200000047683716 0.0 0.0
2.0999999046325684 0.0 0.0
2.0 0.0 0.0
1.899999976158142 0.0 0.0
1.7999999523162842 0.0 0.0
1.7000000476837158 0.0 0.0
1.600000023841858 0.0 0.0
1.5 0.0 0.0
1.399999976158142 0.0 0.0
1.2999999523162842 0.0 0.0
1.2000000476837158 0.0 0.0
1.100000023841858 0.0 0.0
1.0 0.0 0.0
0.8999999761581421 0.0 0.0
0.800000011920929 0.0 0.0
0.699999988079071 0.0 0.0
0.6000000238418579 0.0 0.0
0.5 0.0 0.0
0.4000000059604645 0.0 0.0
0.30000001192092896 0.0 0.0
0.20000000298023224 0.0 0.0
0.10000000149011612 0.0 0.0
0.0 0.10000000149011612 0.0
0.0 0.20000000298023224 0.0
0.0 0.30000001192092896 0.0
0.0 0.4000000059604645 0.0
0.0 0.5 0.0
0.0 0.6000000238418579 0.0
0.0 0.699999988079071 0.0
0.0 0.800000011920929 0.0
0.0 0.8999999761581421 0.0
0.7496038675308228 0.5164291858673096 0.0
1.3451675176620483 0.5190238952636719 0.0
1.9462687969207764 0.4963642954826355 0.0
4.456614971160889 0.5060901641845703 0.0
3.864220380783081 0.4866538345813751 0.0
3.249823808670044 0.482722669839859 0.0
2.6500000953674316 0.5 0.0
0.3810288906097412 0.399004191160202 0.0
2.308779239654541 0.3797946870326996 0.0
1.0499999523162842 0.6625000238418579 0.0
1.644740104675293 0.6598879098892212 0.0
4.150000095367432 0.3375000059604645 0.0
3.555316209793091 0.3343118131160736 0.0
2.9446933269500732 0.3401789665222168 0.0
1.6342840194702148 0.3290160894393921 0.0
1.0591840744018555 0.33908534049987793 0.0
2.9654481410980225 0.6753292679786682 0.0
3.5534629821777344 0.6835107207298279 0.0
4.153462886810303 0.6835107207298279 0.0
2.2139804363250732 0.6805098056793213 0.0
0.4914395809173584 0.6739721894264221 0.0
4.691666603088379 0.6916666626930237 0.0
4.691666603088379 0.3083333373069763 0.0
2.4872219562530518 0.7236665487289429 0.0
0.6240421533584595 0.2677222192287445 0.0
2.0697431564331055 0.2657754421234131 0.0
2.5389034748077393 0.26082900166511536 0.0
0.8147311806678772 0.7450684309005737 0.0
1.2897310256958008 0.743314266204834 0.0
1.8853894472122192 0.7450258731842041 0.0
4.382374286651611 0.23655959963798523 0.0
3.910269021987915 0.25668570399284363 0.0
3.1838724613189697 0.25397706031799316 0.0
1.398239254951477 0.2614254057407379 0.0
3.201760768890381 0.7385746240615845 0.0
3.8017609119415283 0.7385746240615845 0.0
4.39177942276001 0.7466779351234436 0.0
0.25301694869995117 0.7458874583244324 0.0
2.7258167266845703 0.7600342631340027 0.0
0.84163498878479 0.2263137847185135 0.0
0.22429518401622772 0.22429518401622772 0.0
2.7605957984924316 0.22504857182502747 0.0
1.8330284357070923 0.2150011658668518 0.0
0.2192869633436203 0.5323538780212402 0.0
4.7908525466918945 0.5038931369781494 0.0
2.466000556945801 0.5376454591751099 0.0
3.7061264514923096 0.17723728716373444 0.0
3.3929696083068848 0.20266839861869812 0.0
1.4905184507369995 0.7937026619911194 0.0
1.2104878425598145 0.20361483097076416 0.0
3.9895122051239014 0.7963851690292358 0.0
3.389512300491333 0.7963851690292358 0.0
0.5652223825454712 0.5070380568504333 0.0
0.44509074091911316 0.19716571271419525 0.0
2.1318352222442627 0.5042122602462769 0.0
1.548349142074585 0.4954715371131897 0.0
3.050636053085327 0.5004673004150391 0.0
0.9511125087738037 0.498258113861084 0.0
3.651650905609131 0.5045284628868103 0.0
4.248488903045654 0.4980509281158447 0.0
1.1537858247756958 0.49593159556388855 0.0
4.050199031829834 0.49993085861206055 0.0
3.464722156524658 0.509624183177948 0.0
1.749653697013855 0.5001751780509949 0.0
2.851828098297119 0.5057260394096375 0.0
2.359710216522217 0.1888567954301834 0.0
2.0499017238616943 0.8199846148490906 0.0
0.6430503129959106 0.8181284070014954 0.0
4.560274600982666 0.1724673956632614 0.0
4.55863094329834 0.8299665451049805 0.0
2.321284055709839 0.8242537379264832 0.0
4.815218925476074 0.8345447778701782 0.0
4.837246894836426 0.16590170562267303 0.0
0.9682294130325317 0.8331464529037476 0.0
1.730908751487732 0.827606201171875 0.0
4.220076560974121 0.17516615986824036 0.0
3.02066969871521 0.18326662480831146 0.0
1.5634372234344482 0.17044226825237274 0.0
3.035303831100464 0.8294908404350281 0.0
3.627507209777832 0.8360387086868286 0.0
4.2312469482421875 0.8315803408622742 0.0
4.618130683898926 0.5361976027488708 0.0
0.40311703085899353 0.8369210362434387 0.0
1.1473191976547241 0.8458209037780762 0.0
4.052680969238281 0.15417908132076263 0.0
2.020958423614502 0.6394158005714417 0.0
0.662188708782196 0.6447370648384094 0.0
4.5115838050842285 0.3538685142993927 0.0
1.0221220254898071 0.15309639275074005 0.0
0.3837882876396179 0.5515117049217224 0.0
3.548090934753418 0.15800617635250092 0.0
1.4348299503326416 0.6465393304824829 0.0
3.765170097351074 0.3534606993198395 0.0
3.3348300457000732 0.3534606993198395 0.0
1.2546738386154175 0.36384353041648865 0.0
3.945326089859009 0.636156439781189 0.0
3.3412928581237793 0.637225866317749 0.0
2.1904795169830322 0.17066854238510132 0.0
0.16392111778259277 0.38331863284111023 0.0
2.87723445892334 0.8265392184257507 0.0
4.8459792137146 0.6499902606010437 0.0
4.845625400543213 0.34837812185287476 0.0
2.771622896194458 0.38129922747612 0.0
4.5222978591918945 0.6578375697135925 0.0
2.604464530944824 0.8240283727645874 0.0
1.8544400930404663 0.3751189708709717 0.0
0.8566747903823853 0.38255012035369873 0.0
2.2932615280151367 0.5369129776954651 0.0
2.620572805404663 0.6496497392654419 0.0
0.7172287106513977 0.1490369737148285 0.0
0.1410960853099823 0.8303417563438416 0.0
1.7142322063446045 0.142862930893898 0.0
2.6314175128936768 0.14492936432361603 0.0
1.9832650423049927 0.1408119648694992 0.0
2.445650577545166 0.370038241147995 0.0
2.885042667388916 0.1455758661031723 0.0
0.13937503099441528 0.6546638011932373 0.0
0.9110832810401917 0.6349053978919983 0.0
3.088575839996338 0.3613528311252594 0.0
4.296638011932373 0.3563385307788849 0.0
1.1930090188980103 0.6355591416358948 0.0
1.788455843925476 0.6387236714363098 0.0
4.006990909576416 0.3644408583641052 0.0
1.4459187984466553 0.39242905378341675 0.0
4.354081153869629 0.6075709462165833 0.0
3.7540812492370605 0.6075709462165833 0.0
3.1591691970825195 0.6018876433372498 0.0
2.7615907192230225 0.6205627918243408 0.0
2.36276912689209 0.6735464930534363 0.0
1.3681535720825195 0.8630191683769226 0.0
3.8318464756011963 0.1369808316230774 0.0
3.275517463684082 0.10712132602930069 0.0
0.5630941987037659 0.12814241647720337 0.0
1.3237862586975098 0.10638008266687393 0.0
3.2733232975006104 0.8705052733421326 0.0
3.8733232021331787 0.8705052733421326 0.0
2.0396511554718018 0.38928428292274475 0.0
2.2168734073638916 0.8508136868476868 0.0
0.5163488388061523 0.3409615159034729 0.0
0.6547463536262512 0.3955095112323761 0.0
1.9480526447296143 0.8710126876831055 0.0
4.689375877380371 0.13700176775455475 0.0
4.698264122009277 0.8675068616867065 0.0
0.7578787803649902 0.8698469996452332 0.0
2.479548454284668 0.13692785799503326 0.0
2.4562506675720215 0.8735422492027283 0.0
2.171211004257202 0.3573116958141327 0.0
3.5117530822753906 0.853193998336792 0.0
4.107914924621582 0.8658969402313232 0.0
2.640726327896118 0.354434996843338 0.0
4.346996307373047 0.1279495507478714 0.0
0.3128283619880676 0.11246757209300995 0.0
0.136248379945755 0.12152919173240662 0.0
4.453908443450928 0.8629162907600403 0.0
1.6064813137054443 0.8679171800613403 0.0
0.3380795121192932 0.6626779437065125 0.0
0.5102446675300598 0.875635027885437 0.0
0.7425088882446289 0.2989330589771271 0.0
3.1349449157714844 0.10448489338159561 0.0
1.3287748098373413 0.6181886196136475 0.0
3.871795415878296 0.38215625286102295 0.0
3.229135036468506 0.3810797333717346 0.0
0.28971707820892334 0.8759857416152954 0.0
0.9214505553245544 0.11992674320936203 0.0
1.9219478368759155 0.6237660050392151 0.0
1.530794620513916 0.29603153467178345 0.0
3.072223663330078 0.7044162750244141 0.0
3.6722235679626465 0.7044162750244141 0.0
[...]
POINT_DATA 715
SCALARS Psi double
LOOKUP_TABLE default
0.0
0.0
1.0
1.0
1.0
1.0
1.0
1.0
1.0
1.0
1.0
1.0
1.0
1.0
1.0
1.0
1.0
1.0
1.0
1.0
1.0
1.0
1.0
1.0
1.0
1.0
1.0
1.0
1.0
1.0
1.0
1.0
1.0
1.0
1.0
1.0
1.0
1.0
1.0
1.0
1.0
1.0
1.0
1.0
1.0
1.0
1.0
1.0
1.0
1.0
1.0
1.0
1.0
0.899845657084297
0.8221271200837025
0.7183165730183744
0.606480074941363
0.4909348874692024
0.374457272381311
0.25862500024925933
0.14587738276766846
0.04921634907254977
0.0
0.0
0.0
0.0
0.0
0.0
0.0
0.0
0.0
0.0
0.0
0.0
0.0
0.0
0.0
0.0
0.0
0.0
0.0
0.0
0.0
0.0
0.0
0.0
0.0
0.0
0.0
0.0
0.0
0.0
0.0
0.0
0.0
0.0
0.0
0.0
0.0
0.0
0.0
0.0
0.0
0.0
-0.0
0.0
0.0
0.0
0.0
0.0
0.0
0.039520120482581036
0.13144471975614008
0.2387437134275416
0.34658822345784124
0.45280881738116985
0.554491896950955
0.6451814835151803
0.7128301162139733
0.6556123252242065
0.5142514105132854
0.5207244426910369
0.49517853324671424
0.5018863305561839
0.47893252520774804
0.4777396288477285
0.5023245516497916
0.35992066914258614
0.35470391899862813
0.6945808986544
0.6920992151658384
0.2972146227718411
0.29152557497309806
0.30830137620291215
0.29025431946438596
0.30329572104016334
0.7180478139197445
0.7182169694369749
0.7190805094929147
0.7203825967604569
0.697822806529333
0.7227123695429094
0.2654098733383729
0.7725612585283055
0.21471087052559207
0.2160458279261744
0.21135811483005504
0.7912886109045315
0.7943782894649005
0.7970920744528092
0.17137954904122227
0.19919406540787352
0.19894323780379947
0.206013414610407
0.7933688592722642
0.788127125952799
0.796301047072228
0.758807690164334
0.8189595868772711
0.16938059076931333
0.15222093133389225
0.16954436516654078
0.15162381168184016
0.5013129015042022
0.49684183055966047
0.547148931312539
0.09558424824733923
0.12958405051242736
0.855334558429635
0.13325490531716236
0.8560995525183236
0.8559210986507292
0.4976137136615432
0.12509895496002815
0.5055636990792685
0.4922594370909061
0.5025340540513319
0.49499714878759227
0.5003075270504126
0.4925936910954442
0.4927117203793424
0.4952826013680431
0.5074350531207646
0.49876288036123195
0.5099089344263581
0.12025806652615695
0.8898626366910812
0.8822060303465418
0.10194270239232527
0.8945804505522983
0.8958267687948158
0.8871320719214648
0.09756696959479225
0.9000400527765493
0.8950231150152786
0.09903959170264783
0.11694261706334724
0.09657582072812279
0.9101688864127191
0.9031842240708489
0.900219284219083
0.5372748168213658
0.9009856987540983
0.9189928329208001
0.07701241494984497
0.6696494037943528
0.6679193263674227
0.3175470032449787
0.08346963070710568
0.5401773615796366
0.07591950403989617
0.6760186654349363
0.31537713087195446
0.31766095198099265
0.3314924376637851
0.6616489507437517
0.6649648604740356
0.1000627201379567
0.33156331764005015
0.9052662168067572
0.6669774979414645
0.31363354294377943
0.35857817878212533
0.685559944101605
0.8971057903520648
0.347278182125617
0.35537574963910584
0.5457645752688208
0.6840768477580551
0.07777726619381635
0.8171081566401929
0.06782096573746751
0.07117059330542055
0.06678149596514871
0.34346021349537154
0.07511103233558622
0.6227699170668249
0.6595546537332996
0.3320287554092528
0.31937862068774137
0.6628584294657879
0.6671230622900477
0.3302908891725599
0.36642416182320253
0.6259220554780281
0.6266900529432271
0.6256057046421548
0.6496013111736214
0.7117258812369702
0.9362072366391114
0.05658956285148559
0.021430277635995587
0.05258065588156047
0.022188815646839912
0.9483682662684778
0.9468045678505257
0.3655103385243377
0.9288092577989202
0.29761235892048926
0.3670769846609227
0.951107695346488
0.06402254746039468
0.9400716836495521
0.9395558021900334
0.062265328067755844
0.9491841355745785
0.3270513713732383
0.9200366374053055
0.940534176209466
0.3253748793331108
0.038656807619788326
0.03119391403822802
0.042173824232626465
0.9355336574047409
0.9420771815372656
0.6699434865825624
0.9525492167884352
0.25414340671452484
0.02254869512312685
0.6416267146971134
0.35136778536670327
0.3535482357446801
0.9483075136832503
0.05101027568482186
0.6499276500434353
0.2492696097052293
0.7535945554308087
0.7445537487482468
0.7445259305802095
0.9949357263439269
0.629835156078687
0.032864773871625744
0.964892613168111
0.9694140729191526
0.20566605002798774
0.383569318979081
0.2523919158060407
0.9787633953209088
0.01914502122834181
0.785841961612084
0.35228661739628836
0.18937256793908905
0.3797056988942245
0.03517006122359422
0.18880317178503173
0.9644547729539996
0.9598908965329821
0.19788669324771957
0.25960712139198533
0.015997844723262763
0.4530309166811257
0.002814586199244429
0.44594949785656424
0.2636804564331708
0.012322494647683209
0.015752631315465965
0.43804687637353074
0.4455209311623743
0.4375736432953922
0.5542930001259455
0.5576247495707625
0.024617269258719984
0.5479152682467924
0.02160012430898092
0.6380759421730346
0.2038460402741342
0.6232008992900421
0.9820521728263306
0.7344950063061805
0.236300786768556
0.7294831363912396
0.25655390615807
0.2713958602719856
0.7347358588163899
0.9859124896287257
0.012659068962434225
0.20958346819774634
0.7820139734294734
0.20992655410063243
0.362041189422584
0.5943193063947629
0.7666131438888377
0.20626795174968368
0.42681277221940006
0.42679426931011444
0.5771601468421882
0.5697754855797285
0.5690473896156709
0.05099526926406698
0.6954491270948466
0.20755187744094666
0.788373860384226
0.7855718346687
0.5576949380788273
0.43532195122705164
0.4434734434487877
0.02145077451751044
0.558224442919226
0.7799983633035472
0.213502662447986
0.9869937141813968
0.26428740198429296
0.5508593540965182
0.6172121809442634
0.44059793653078744
0.7832541637754299
0.548411473260441
0.9786344764423087
0.45999231760114795
0.9576609652728111
0.9578078857848124
0.8153447823636659
0.7770398609163268
0.9335134719731256
0.03896741962567016
0.44795751584308907
0.648424180017845
0.5500443928035025
0.6285118110564891
0.41831103215048654
0.18013968491399998
0.014898744544564059
0.46168042782833296
0.25265648638924354
0.7599838326533213
0.5366662455932053
0.45802337028251094
0.46068005198428186
0.7636695221986138
0.7852338723111175
0.21376927260914308
0.2027607118636315
0.7871625225106648
0.43037207752516005
0.986551415242873
0.20146083927477745
0.8293237862358608
0.8336101524737644
0.3938749568762052
0.8396857628353082
0.9958684190255065
0.19807092024122913
0.23022104102751823
0.6321103865716327
0.36386319685527097
0.6295141029368867
0.6364827890570873
0.15625046452167923
0.6149023219408208
0.37891671314753783
0.37849475721359943
0.027573834565768
0.47708263992357786
0.3143652161876388
0.6778284663211932
0.6984985717915072
0.3774815767899585
0.7947683936920028
0.6206660414746082
0.6201647568664047
0.6037079663033074
0.03240437636881051
0.034652029199648604
0.22412477272062975
0.7572087707258937
0.014467199193961399
0.8279977497478263
0.83956939443761
0.7752006963388017
0.011031559395974217
0.01139471444553132
0.24363347502596808
0.3796968221695422
0.010766782706741782
0.9913284518235255
0.3681604657804449
0.8128958180336976
0.9949808860005841
0.7958809965610558
0.1969712596045865
0.9942241463995101
0.009982365203858302
0.1748949412451676
0.9770953519110932
0.017014059701365613
0.35402566265346086
0.009528578418041434
0.6467524704226604
0.020521747774534645
0.9922143026763912
0.9953592487002854
0.1859387966234462
0.5363242713209384
0.2235642296008226
0.9882872186480727
0.8035883452022594
0.9881075801033279
0.388218401578869
0.9870486259911221
0.9936684414579876
0.19746560596462545
0.1621268620361833
0.007341097610347209
0.3479048728093969
0.6028844589482626
0.5726478517330024
0.42541719192272265
0.5466428063997059
0.9949982156021657
0.28753922949352034
0.5578968696778369
0.995431031728524
0.0037327463888238146
0.011472272806593898
0.2506805919885486
0.43892782638309014
0.5512933718139121
0.012171195739966586
0.8490409066930664
0.9921957125349146
0.8093588056049489
0.1624831821432713
0.8403573041115319
0.8326534101559419
0.5921745629079364
0.15924496717061903
0.8267842428952199
-0.0012583272845631275
0.3334785806129229
0.013897559254171434
0.860169705212667
0.13479451484023136
0.002540037672005109
0.5624236267109785
0.5601088406092404
0.9950459683794161
0.9933338386611515
0.9841086164765231
0.00898473774506371
0.44638682520284867
0.619908040023825
0.6253199541310503
0.6258784129697517
0.3710786405208165
0.367756776621387
0.3743638192210187
0.8737462895941238
0.9869135454034673
0.985906620094949
0.9781709882212505
0.9006341086573518
0.6513539591344709
0.6862762761511815
0.005017285409582078
0.11861105049260051
0.7147146833079527
0.6626966738612652
0.3151025308674451
0.8768058294822513
0.15687101562126962
0.14258301085374964
0.6562669861569222
0.5881901545111263
0.44128855532818795
0.9856322334981056
0.9928819275629913
0.7101699372950593
0.15871895432138858
0.8578673048706761
0.27934120897436937
0.8816873664203938
0.1122568917947409
0.9888794650567656
0.01053273864722684
0.3983696547277594
0.591196130916178
0.3954820968071363
0.759210807736615
0.10454237185301016
0.5604210927044933
0.41471052798502966
0.7568550220738368
0.0015156307735655899
0.0009211050186735145
0.22288287038882432
0.24867097965407087
0.11940120813160365
0.1762705017712647
0.8694744696308864
0.7577671229002292
0.23591204398193363
0.717597448031114
0.2774002938560498
0.8528098483613399
0.8296312181412921
0.826364245182865
-0.0013925493483719327
0.8744979495349352
0.3892732797607769
0.28170233489375796
0.9942554112028731
0.23947365057694
0.5405873025901388
0.6665152205456579
0.5782679753824888
0.5965873493686431
0.10197565135854841
0.8931857171789214
0.8896242629692415
0.13272225452750522
0.7094257214735603
-0.0003928579231128818
1.0008511699416225
1.002227277929912
0.09408846287851204
0.11844368085934477
0.8495888604292324
0.2995426041443719
0.8883736720559934
0.47506787909663095
0.7782022837341898
0.0071874576595184194
0.5955402008103332
0.39484066955289754
0.4010842035797845
0.9962383835244553
0.00021320630918644117
0.6030510175715874
0.0033051613238454227
0.4272875818447983
0.12615568950174827
0.0018492388769663223
0.30038643758094596
0.587257817853558
0.7519707150998709
0.7099690260305735
0.8848281758553724
0.10964760090009107
0.30202979233991095
0.2623974313576713
0.6902445691780671
0.9985523768452328
0.28317622927729996
0.1329846574941717
0.2649773731670667
0.11001916448573013
0.8583328733311232
0.1093912757739425
0.27276792641807424
0.7196369377771472
0.7206991180078361
0.7274449810140562
0.4202831921022379
0.9957095214894677
0.4125512921614186
0.8443891987003076
0.005146464660729709
0.11359365971832519
0.0963158534941408
0.5657918747532392
0.1365272171330652
0.005684010755067165
0.08289129613859453
0.12964641628975074
0.4330734701096846
0.5493803120854539
0.08021870672412552
0.2620606627335784
0.000811163603415106
0.9961637825778838
0.8304347875217363
0.44307389346352766
0.5507462935075647
0.5907536147660442
0.8685483871116678
0.11526335108949219
0.1125930258360187
0.991637518074723
0.07548216578191119
0.545582884315792
0.36805462678373646
0.17826322202996128
0.0009517041524996015
0.7161053733767756
0.8715799844268776
0.22020215853346797
0.20293117335071223
0.7709370586823342
1.0021612501429633
0.09995667801430626
0.8813102196790208
0.879828329396612
0.45486989180336385
0.4519961408763211
0.9986892983555309
0.2672925250169393
0.37232375010872365
0.41308935255907636
0.0014505567256473705
0.9190620750794259
0.9198966229377673
0.28859391571489346
0.5706774750567912
0.7595179914216861
0.75977075054687
0.25087606064513046
0.7494170748248808
0.29510837038706494
0.8042476341802407
0.8055145468529805
0.5756570989908445
0.8164296649204339
0.5805428721813221
0.11229831656240674
0.8831759771427926
0.4204270137109675
0.5781312949169289
0.41202924186684475
-0.0030028057056232945
0.352657757363786
0.10737096306148013
0.0036469352066635617
0.5527222876184377
0.1876787411000321
0.2735695523985461
0.11820912711958952
0.7163143819700961
0.7907267038358268
0.9317692644459208
0.5596841366142841
0.010299667764894804
0.44083359719118465
0.13442910019589074
0.9929256041595769
0.9924565180156396
0.005051339680154861
0.10919743900137115
0.8858273826665338
0.006283585555588296
-0.0015544274272000268
0.30154313994288984
0.6915390626104396
0.4705218948131557
0.9944458188066335
0.3063354560486346
0.7423525155762378
0.26865798448075495
0.728041490791344
0.2644180613089278
0.9730078913762765
0.008176825916541373
0.43027730041198237
1.0016622643234452
0.8981655845156453
0.10077995887791494

SCALARS Omega double
LOOKUP_TABLE default
-8.757543889343545
-5.177434659955426
11.293801710939197
16.68649942169102
35.06243621708758
2.3620340842099457
8.285821259261956
8.811068491517224
5.829280860668113
11.184680709759073
5.96257193295672
5.20888398336809
4.846630193484924
7.54293641500036
5.400860679524294
5.610054566787432
5.3593139361292375
4.848427490003155
6.862711675696258
3.0868300066310543
9.337427829445204
6.094060660419654
3.4417683094823865
4.643823718905947
6.721139879990522
5.944825031179565
6.872191215788576
4.598016137201619
5.040413831440526
7.82314891534392
6.886374983138781
6.4227180341325525
6.035756300984142
5.5463865727561865
4.598512987550208
5.175911655048493
5.804556654101354
3.5987455109171527
7.364399967362813
7.338994374706289
5.73134314472187
5.3655320663829835
5.628623064314968
3.982390129335553
4.59024875194795
7.139497328130649
7.5735350497430955
5.316166351538021
5.268583366055696
10.099031334613485
5.302496028790826
8.607556592464515
15.80570356353375
-5.834824466437112
0.4221516096988614
0.7349259213280611
0.4211364969254814
-0.04492377560047533
-0.08196155167066507
-0.14278644038124538
-0.9332278042406925
-3.100933633888354
-7.152875686073909
-8.459364756212914
-6.195113041964608
-5.4469621783246716
-6.779143186221823
-5.873971484772198
-4.597913992262799
-6.1165687166082465
-4.917972356624265
-5.357370245766697
-4.771848419828068
-3.3600304811561283
-6.639028794070062
-4.4986579366755235
-3.7067803825326955
-6.913576975638019
-5.620101876197876
-3.9271888224996587
-7.119995464307421
-6.165744911275098
-6.403737179764081
-6.686583083929862
-6.990163011514198
-7.278358982768176
-4.723406144783095
-4.808740238342725
-6.332141987106213
-6.023794234906485
-5.028371377443374
-4.696760283393455
-5.622177060775121
-5.333266841077943
-4.607885016508552
-4.841310494984523
-5.729256569883865
-5.074468852793455
-5.235212398972469
-6.887660430497725
-6.6261362170459925
-7.000354534483747
-7.4836041080098195
-2.7160474188946795
-7.588068920270743
-4.563044594238209
-3.6345052991209608
-8.108251082354787
-6.012477216336701
-3.651978213509221
-3.915407135344003
-4.397958142432929
1.4532436886050373
-0.0998916170973258
-0.13720267896013288
-0.7877953445311718
1.1269676883937054
-5.4017755194212596
-1.2686531155554779
-37.201791356480626
0.0015903402703708787
-0.0003833409023980611
0.003279556317611584
0.0026128217066229737
8.76715613480837e-05
-0.004250633802032999
0.0018911336542127765
0.012776824107444452
0.019554132136444243
0.02105470569415858
0.04113403990374693
-0.0713142783971299
-0.12168959862491291
0.010166585303612852
0.005781379932972241
0.00014258322199768228
0.07814188779692426
0.02957811797661341
0.052754376476266025
0.09921755751758016
0.023422309632724486
0.08519902901181746
-0.11580006310112674
0.0894775109575348
-0.05899192252315491
-0.07190731492394589
-0.015870177029585573
0.11207493094327975
-0.08778077588541039
-0.04687743973910906
0.48199854958478866
0.0013924495747055295
-0.03677311396239023
-0.09363120878874445
0.04232605186430209
0.039953717965040755
-0.15793537260097054
-0.10152612009678752
-0.26873204800075345
0.27408204197825614
1.0953337924986406
0.20822404670898484
0.9324359541294459
0.011849382104600438
-0.0016979944914572518
0.0006004837196662204
-0.6041985862023223
2.4188102799611495
-1.1678369685708292
2.2161773403354643
-0.41316366544239036
-0.36130574678206334
0.0006688287082460816
1.3630036454343006
-0.0006839692886857684
0.0004924086967861729
-0.0017846823756005126
-0.0006248818656429304
0.001561087068622439
-0.00025636220908258696
0.0011948750164214902
0.0007456315004580584
-0.0007563216357325852
0.0001901146417869443
-0.0007510873569675724
1.6928408220433246
-1.5663314562929465
-1.826432681830639
1.443007218174645
-2.114779764181927
-1.635047353289459
-0.8088615950562572
1.176756084820742
-1.3583267205042961
-1.6428651348842764
1.053145566815121
1.3281422738084507
-0.0023693323540906093
0.31250675148057533
-2.233558999131069
-2.2662879140867815
0.0014565047219560884
-1.0051954518748936
-0.49639852640412746
0.2258785347797104
-0.010834302257055456
0.01404232898928752
0.009082077680207608
2.3758028081428986
-0.0022171286116148287
0.09316445948107185
-0.001173045182668634
0.007593630075694743
-0.013690253226275083
0.00925584731931324
-0.013013350155307132
-0.006356472117352685
1.1744225716132344
0.06151584718809989
-0.6690911098510354
-0.11305822123078876
0.06840595332580977
0.011189524568027652
-0.015968339550437208
-1.2982720361425422
0.01735237938377457
0.002898182504011367
-0.0008793808933268647
-0.011977298274072061
-0.516034112777107
-1.6171273887984912
-1.117597036010768
-1.026824328374431
-0.44808650281955736
0.0021150828581784024
1.1369676591840576
-0.10863606453308579
-0.014341583907577218
-0.01163587691953668
-0.014541258073949232
0.042401522170335854
0.010797010444895519
0.010065251376513826
0.017222631123370788
0.005478339883140954
-0.003698605336724532
-0.003068736153022459
-0.009122423259212725
0.06378762462352146
0.719134400826174
-2.3203906873577176
-10.853880122570928
-1.7554917071881566
-10.86412740443378
4.166616783113013
4.190719608621326
0.0049908000303071215
2.3616602131578452
-0.06711104338919834
0.006391141638403008
5.523372052522524
-0.6738316966820554
6.688907311946825
0.6962093458616757
-0.7626959630940067
2.136631098543106
0.01075274614912819
-0.6670261467436241
5.8210192561716
-0.00016516563529027774
-8.04975393535772
-9.641774343302275
-3.8894041966098554
0.7490732199621501
4.7537882130722435
-0.046465155647896605
7.950128639664254
-0.0549378200549609
-11.1539684544925
-0.002738733879354535
0.013198208643269024
0.0193779646629584
9.329196304974891
-2.230591916370924
-0.003644386808692873
0.003072736367670092
0.004050835244615593
0.05228937261328936
0.0740533037452079
16.04410347412872
-0.008839646546999435
-8.354457136927888
8.036436261716325
8.105290791243435
0.012868939307797974
0.01347073249028227
-0.08852984063264382
13.38438803803837
-12.77061982239053
-0.0078087219239913064
0.012348725968532261
-0.18790624404488107
0.006907015264025309
-7.941772096173956
0.5520756884079526
8.469087232246991
7.230851984379372
-0.07752817418698318
-0.10666649909805521
-13.72138046191514
-0.00023758693441223972
-17.50584852667548
-0.44918647682123664
-0.020898246909707447
-13.800954690312903
-14.36824683372885
0.011537128956803549
0.0011538165363400642
0.009666388499321816
-0.006531307833833827
-0.0031874337278962788
-10.942238846888568
0.06913330124979476
-12.83262426366251
-0.018935214009423936
-0.20414956051014901
-0.06871350518318406
13.85669318424169
0.062468797434670806
-0.2328032857341301
0.044531264272954243
-0.24227155183636193
-0.02296968721808166
0.11333333441727214
15.490127026180076
-14.621458144853563
-0.05977884012411843
0.08361378053155379
-0.18282021890653033
0.01651752430916953
-0.008951131676634309
0.6231866849577249
-0.28686889592310516
-0.0015596606333018299
0.005011770060413085
-0.010061463233513488
-0.004716132976252399
-0.006237325468557166
-5.2195847984928365
-0.7879641309310385
-0.07728020553600962
0.17010476197298244
0.17510581167858838
-0.006486901485635776
0.0012451168189192194
-0.00027096712742841666
-14.337572642815779
0.002842041410390314
0.3056651233747562
-0.16844497322428711
14.175337647352196
-0.1509462908606345
-0.0028468137784572866
-0.020679523622244244
0.002637161990871058
0.09983657621685268
-0.00122840881761457
13.665945119059026
-0.0004536041986568054
6.819915755702287
6.56909977801487
-0.2976661880036462
0.09927274758572142
1.5586903016090152
-6.330843179267802
0.0029803552558677485
-0.032986615622490674
-0.004198281416753015
-0.015007118019339145
-0.04632375820389561
-0.12849650500083348