# vtk DataFile Version 1.0
2D Simulation C++
ASCII
DATASET UNSTRUCTURED_GRID
FIELD FieldData 1
NODES 1 2 int
715 1308

POINTS 715 double
0.0 0.0 0.0
5.0 0.0 0.0
5.0 1.0 0.0
0.0 1.0 0.0
0.10000000149011612 1.0 0.0
0.20000000298023224 1.0 0.0
0.30000001192092896 1.0 0.0
0.4000000059604645 1.0 0.0
0.5 1.0 0.0
0.6000000238418579 1.0 0.0
0.699999988079071 1.0 0.0
0.800000011920929 1.0 0.0
0.8999999761581421 1.0 0.0
1.0 1.0 0.0
1.100000023841858 1.0 0.0
1.2000000476837158 1.0 0.0
1.2999999523162842 1.0 0.0
1.399999976158142 1.0 0.0
1.5 1.0 0.0
1.600000023841858 1.0 0.0
1.7000000476837158 1.0 0.0
1.7999999523162842 1.0 0.0
1.899999976158142 1.0 0.0
2.0 1.0 0.0
2.0999999046325684 1.0 0.0
2.200000047683716 1.0 0.0
2.299999952316284 1.0 0.0
2.4000000953674316 1.0 0.0
2.5 1.0 0.0
2.5999999046325684 1.0 0.0
2.700000047683716 1.0 0.0
2.799999952316284 1.0 0.0
2.9000000953674316 1.0 0.0
3.0 1.0 0.0
3.0999999046325684 1.0 0.0
3.200000047683716 1.0 0.0
3.299999952316284 1.0 0.0
3.4000000953674316 1.0 0.0
3.5 1.0 0.0
3.5999999046325684 1.0 0.0
3.700000047683716 1.0 0.0
3.799999952316284 1.0 0.0
3.9000000953674316 1.0 0.0
4.0 1.0 0.0
4.099999904632568 1.0 0.0
4.199999809265137 1.0 0.0
4.300000190734863 1.0 0.0
4.400000095367432 1.0 0.0
4.5 1.0 0.0
4.599999904632568 1.0 0.0
4.699999809265137 1.0 0.0
4.800000190734863 1.0 0.0
4.900000095367432 1.0 0.0
5.0 0.8999999761581421 0.0
5.0 0.800000011920929 0.0
5.0 0.699999988079071 0.0
5.0 0.6000000238418579 0.0
5.0 0.5 0.0
5.0 0.4000000059604645 0.0
5.0 0.30000001192092896 0.0
5.0 0.20000000298023224 0.0
5.0 0.10000000149011612 0.0
4.900000095367432 0.0 0.0
4.800000190734863 0.0 0.0
4.699999809265137 0.0 0.0
4.599999904632568 0.0 0.0
4.5 0.0 0.0
4.400000095367432 0.0 0.0
4.300000190734863 0.0 0.0
4.199999809265137 0.0 0.0
4.099999904632568 0.0 0.0
4.0 0.0 0.0
3.9000000953674316 0.0 0.0
3.799999952316284 0.0 0.0
3.700000047683716 0.0 0.0
3.5999999046325684 0.0 0.0
3.5 0.0 0.0
3.4000000953674316 0.0 0.0
3.299999952316284 0.0 0.0
3.200000047683716 0.0 0.0
3.0999999046325684 0.0 0.0
3.0 0.0 0.0
2.9000000953674316 0.0 0.0
2.799999952316284 0.0 0.0
2.700000047683716 0.0 0.0
2.5999999046325684 0.0 0.0
2.5 0.0 0.0
2.4000000953674316 0.0 0.0
2.299999952316284 0.0 0.0
2.200000047683716 0.0 0.0
2.0999999046325684 0.0 0.0
2.0 0.0 0.0
1.899999976158142 0.0 0.0
1.7999999523162842 0.0 0.0
1.7000000476837158 0.0 0.0
1.600000023841858 0.0 0.0
1.5 0.0 0.0
1.399999976158142 0.0 0.0
1.2999999523162842 0.0 0.0
1.2000000476837158 0.0 0.0
1.100000023841858 0.0 0.0
1.0 0.0 0.0
0.8999999761581421 0.0 0.0
0.800000011920929 0.0 0.0
0.699999988079071 0.0 0.0
0.6000000238418579 0.0 0.0
0.5 0.0 0.0
0.4000000059604645 0.0 0.0
0.30000001192092896 0.0 0.0
0.20000000298023224 0.0 0.0
0.10000000149011612 0.0 0.0
0.0 0.10000000149011612 0.0
0.0 0.20000000298023224 0.0
0.0 0.30000001192092896 0.0
0.0 0.4000000059604645 0.0
0.0 0.5 0.0
0.0 0.6000000238418579 0.0
0.0 0.699999988079071 0.0
0.0 0.800000011920929 0.0
0.0 0.8999999761581421 0.0
0.7496038675308228 0.5164291858673096 0.0
1.3451675176620483 0.5190238952636719 0.0
1.9462687969207764 0.4963642954826355 0.0
4.456614971160889 0.5060901641845703 0.0
3.864220380783081 0.4866538345813751 0.0
3.249823808670044 0.482722669839859 0.0
2.6500000953674316 0.5 0.0
0.3810288906097412 0.399004191160202 0.0
2.308779239654541 0.3797946870326996 0.0
1.0499999523162842 0.6625000238418579 0.0
1.644740104675293 0.6598879098892212 0.0
4.150000095367432 0.3375000059604645 0.0
3.555316209793091 0.3343118131160736 0.0
2.9446933269500732 0.3401789665222168 0.0
1.6342840194702148 0.3290160894393921 0.0
1.0591840744018555 0.33908534049987793 0.0
2.9654481410980225 0.6753292679786682 0.0
3.5534629821777344 0.6835107207298279 0.0
4.153462886810303 0.6835107207298279 0.0
2.2139804363250732 0.6805098056793213 0.0
0.4914395809173584 0.6739721894264221 0.0
4.691666603088379 0.6916666626930237 0.0
4.691666603088379 0.3083333373069763 0.0
2.4872219562530518 0.7236665487289429 0.0
0.6240421533584595 0.2677222192287445 0.0
2.0697431564331055 0.2657754421234131 0.0
2.5389034748077393 0.26082900166511536 0.0
0.8147311806678772 0.7450684309005737 0.0
1.2897310256958008 0.743314266204834 0.0
1.8853894472122192 0.7450258731842041 0.0
4.382374286651611 0.23655959963798523 0.0
3.910269021987915 0.25668570399284363 0.0
3.1838724613189697 0.25397706031799316 0.0
1.398239254951477 0.2614254057407379 0.0
3.201760768890381 0.7385746240615845 0.0
3.8017609119415283 0.7385746240615845 0.0
4.39177942276001 0.7466779351234436 0.0
0.25301694869995117 0.7458874583244324 0.0
2.7258167266845703 0.7600342631340027 0.0
0.84163498878479 0.2263137847185135 0.0
0.22429518401622772 0.22429518401622772 0.0
2.7605957984924316 0.22504857182502747 0.0
1.8330284357070923 0.2150011658668518 0.0
0.2192869633436203 0.5323538780212402 0.0
4.7908525466918945 0.5038931369781494 0.0
2.466000556945801 0.5376454591751099 0.0
3.7061264514923096 0.17723728716373444 0.0
3.3929696083068848 0.20266839861869812 0.0
1.4905184507369995 0.7937026619911194 0.0
1.2104878425598145 0.20361483097076416 0.0
3.9895122051239014 0.7963851690292358 0.0
3.389512300491333 0.7963851690292358 0.0
0.5652223825454712 0.5070380568504333 0.0
0.44509074091911316 0.19716571271419525 0.0
2.1318352222442627 0.5042122602462769 0.0
1.548349142074585 0.4954715371131897 0.0
3.050636053085327 0.5004673004150391 0.0
0.9511125087738037 0.498258113861084 0.0
3.651650905609131 0.5045284628868103 0.0
4.248488903045654 0.4980509281158447 0.0
1.1537858247756958 0.49593159556388855 0.0
4.050199031829834 0.49993085861206055 0.0
3.464722156524658 0.509624183177948 0.0
1.749653697013855 0.5001751780509949 0.0
2.851828098297119 0.5057260394096375 0.0
2.359710216522217 0.1888567954301834 0.0
2.0499017238616943 0.8199846148490906 0.0
0.6430503129959106 0.8181284070014954 0.0
4.560274600982666 0.1724673956632614 0.0
4.55863094329834 0.8299665451049805 0.0
2.321284055709839 0.8242537379264832 0.0
4.815218925476074 0.8345447778701782 0.0
4.837246894836426 0.16590170562267303 0.0
0.9682294130325317 0.8331464529037476 0.0
1.730908751487732 0.827606201171875 0.0
4.220076560974121 0.17516615986824036 0.0
3.02066969871521 0.18326662480831146 0.0
1.5634372234344482 0.17044226825237274 0.0
3.035303831100464 0.8294908404350281 0.0
3.627507209777832 0.8360387086868286 0.0
4.2312469482421875 0.8315803408622742 0.0
4.618130683898926 0.5361976027488708 0.0
0.40311703085899353 0.8369210362434387 0.0
1.1473191976547241 0.8458209037780762 0.0
4.052680969238281 0.15417908132076263 0.0
2.020958423614502 0.6394158005714417 0.0
0.662188708782196 0.6447370648384094 0.0
4.5115838050842285 0.3538685142993927 0.0
1.0221220254898071 0.15309639275074005 0.0
0.3837882876396179 0.5515117049217224 0.0
3.548090934753418 0.15800617635250092 0.0
1.4348299503326416 0.6465393304824829 0.0
3.765170097351074 0.3534606993198395 0.0
3.3348300457000732 0.3534606993198395 0.0
1.2546738386154175 0.36384353041648865 0.0
3.945326089859009 0.636156439781189 0.0
3.3412928581237793 0.637225866317749 0.0
2.1904795169830322 0.17066854238510132 0.0
0.16392111778259277 0.38331863284111023 0.0
2.87723445892334 0.8265392184257507 0.0
4.8459792137146 0.6499902606010437 0.0
4.845625400543213 0.34837812185287476 0.0
2.771622896194458 0.38129922747612 0.0
4.5222978591918945 0.6578375697135925 0.0
2.604464530944824 0.8240283727645874 0.0
1.8544400930404663 0.3751189708709717 0.0
0.8566747903823853 0.38255012035369873 0.0
2.2932615280151367 0.5369129776954651 0.0
2.620572805404663 0.6496497392654419 0.0
0.7172287106513977 0.1490369737148285 0.0
0.1410960853099823 0.8303417563438416 0.0
1.7142322063446045 0.142862930893898 0.0
2.6314175128936768 0.14492936432361603 0.0
1.9832650423049927 0.1408119648694992 0.0
2.445650577545166 0.370038241147995 0.0
2.885042667388916 0.1455758661031723 0.0
0.13937503099441528 0.6546638011932373 0.0
0.9110832810401917 0.6349053978919983 0.0
3.088575839996338 0.3613528311252594 0.0
4.296638011932373 0.3563385307788849 0.0
1.1930090188980103 0.6355591416358948 0.0
1.788455843925476 0.6387236714363098 0.0
4.006990909576416 0.3644408583641052 0.0
1.4459187984466553 0.39242905378341675 0.0
4.354081153869629 0.6075709462165833 0.0
3.7540812492370605 0.6075709462165833 0.0
3.1591691970825195 0.6018876433372498 0.0
2.7615907192230225 0.6205627918243408 0.0
2.36276912689209 0.6735464930534363 0.0
1.3681535720825195 0.8630191683769226 0.0
3.8318464756011963 0.1369808316230774 0.0
3.275517463684082 0.10712132602930069 0.0
0.5630941987037659 0.12814241647720337 0.0
1.3237862586975098 0.10638008266687393 0.0
3.2733232975006104 0.8705052733421326 0.0
3.8733232021331787 0.8705052733421326 0.0
2.0396511554718018 0.38928428292274475 0.0
2.2168734073638916 0.8508136868476868 0.0
0.5163488388061523 0.3409615159034729 0.0
0.6547463536262512 0.3955095112323761 0.0
1.9480526447296143 0.8710126876831055 0.0
4.689375877380371 0.13700176775455475 0.0
4.698264122009277 0.8675068616867065 0.0
0.7578787803649902 0.8698469996452332 0.0
2.479548454284668 0.13692785799503326 0.0
2.4562506675720215 0.8735422492027283 0.0
2.171211004257202 0.3573116958141327 0.0
3.5117530822753906 0.853193998336792 0.0
4.107914924621582 0.8658969402313232 0.0
2.640726327896118 0.354434996843338 0.0
4.346996307373047 0.1279495507478714 0.0
0.3128283619880676 0.11246757209300995 0.0
0.136248379945755 0.12152919173240662 0.0
4.453908443450928 0.8629162907600403 0.0
1.6064813137054443 0.8679171800613403 0.0
0.3380795121192932 0.6626779437065125 0.0
0.5102446675300598 0.875635027885437 0.0
0.7425088882446289 0.2989330589771271 0.0
3.1349449157714844 0.10448489338159561 0.0
1.3287748098373413 0.6181886196136475 0.0
3.871795415878296 0.38215625286102295 0.0
3.229135036468506 0.3810797333717346 0.0
0.28971707820892334 0.8759857416152954 0.0
0.9214505553245544 0.11992674320936203 0.0
1.9219478368759155 0.6237660050392151 0.0
1.530794620513916 0.29603153467178345 0.0
3.072223663330078 0.7044162750244141 0.0
3.6722235679626465 0.7044162750244141 0.0
[...]
POINT_DATA 715
SCALARS Psi double
LOOKUP_TABLE default
0.0
0.0
1.0
1.0
1.0
1.0
1.0
1.0
1.0
1.0
1.0
1.0
1.0
1.0
1.0
1.0
1.0
1.0
1.0
1.0
1.0
1.0
1.0
1.0
1.0
1.0
1.0
1.0
1.0
1.0
1.0
1.0
1.0
1.0
1.0
1.0
1.0
1.0
1.0
1.0
1.0
1.0
1.0
1.0
1.0
1.0
1.0
1.0
1.0
1.0
1.0
1.0
1.0
0.9016887546683412
0.8245067320523631
0.720198741548621
0.6072452891532503
0.4902046019758448
0.37213913842075785
0.25484948633186555
0.14119273159612045
0.04620793852011242
0.0
0.0
0.0
0.0
0.0
0.0
0.0
0.0
0.0
0.0
0.0
0.0
0.0
0.0
0.0
0.0
0.0
0.0
0.0
0.0
0.0
0.0
0.0
0.0
0.0
0.0
0.0
0.0
0.0
0.0
0.0
0.0
0.0
0.0
0.0
0.0
0.0
0.0
0.0
0.0
0.0
0.0
-0.0
0.0
0.0
0.0
0.0
0.0
0.0
0.036297931455161164
0.1268901075859904
0.23441052892034558
0.3425882391139901
0.4492177460581323
0.5510472775240914
0.641643538725255
0.7093560118945444
0.6542332248171243
0.5146894018147757
0.5208616795277571
0.4949459745615554
0.5015729955966178
0.4780215763006462
0.47730661444472106
0.5025731501296938
0.35734857887965904
0.35263610655750016
0.6974117708901961
0.694433422807395
0.29388811082787586
0.28775786910038265
0.3058393112015128
0.2870165835509022
0.3005392358909853
0.7218031588573537
0.7206913025952686
0.7217340985789304
0.7237096481529931
0.701221208013269
0.7252952212627085
0.26175148064640763
0.7767051148642662
0.21101026276201823
0.21198683608119182
0.20710627329564082
0.7954249600111524
0.7986360265128448
0.8008644136114242
0.16600242033478557
0.19442786308440677
0.19456503428999364
0.2014743560258253
0.7978073794612086
0.791845746362522
0.8006116096659731
0.7622800732420333
0.8242172791044307
0.1653547155095315
0.14671810498991558
0.16469174498347688
0.14648944021001914
0.4993636628387916
0.49626295380069396
0.5479949503556875
0.08874616534054977
0.12365016385312533
0.8600021216282875
0.1274093857845929
0.8602504166301285
0.8601377606196037
0.49769860398843535
0.11963050564025451
0.5056336877692374
0.4918796577746978
0.502816610847135
0.49506126865594546
0.4996541934025904
0.49209148512647044
0.4925904178721466
0.4947002535015436
0.5070298348451782
0.49848015265960743
0.5103781515291657
0.11463787009046403
0.8953035570472141
0.8885480903925883
0.0962619925655108
0.9002323942038964
0.9020216656808598
0.8914814986626275
0.09152067979235962
0.9052970747500948
0.9001919435534127
0.0931266980510218
0.11189584722536246
0.09080291474415168
0.9170274693856454
0.9082996811804412
0.9057180640361611
0.537395964016945
0.9088593519063499
0.9249266545183603
0.07093881969608835
0.6719388895301732
0.6706817543721907
0.3145529544904601
0.07780320642095052
0.5402937538641669
0.06934866931307498
0.6782839128350495
0.3119575826132748
0.3147263233082263
0.3289030891160149
0.6633554817016348
0.6669901094641034
0.09455405427065998
0.327705680873825
0.91199929977737
0.6685977198898299
0.3104836077162167
0.35670054459331507
0.6879800171032325
0.9033656455851423
0.3449251123985065
0.3536068454696469
0.5465261479695076
0.6870807619686204
0.07303667750917843
0.8184205830853051
0.062274362152836264
0.06504643199691929
0.06111338014843508
0.341237272849249
0.06970088706965466
0.620604144836499
0.6619098468946356
0.32977955530144354
0.31636292380845116
0.6652236597927149
0.6691449924710786
0.3273701645896906
0.36427275690169036
0.6274699729340706
0.6279218362779553
0.6275741870985359
0.6521877181756983
0.7149795604393391
0.9415285872028069
0.05055398414623606
0.01611184858093163
0.04759439152424214
0.016851257458592298
0.9533134845824539
0.9516931868250695
0.363506943608326
0.9350199317596163
0.2947125317637854
0.36541156131636926
0.9557788027560157
0.05863281287421308
0.944627254122212
0.9452637440524381
0.056462499234637475
0.9547365834974394
0.3245544041572685
0.9247655352017806
0.9447658499280489
0.3228649405373785
0.0329273721207011
0.02616032208900159
0.03707790092964058
0.941592166817053
0.9463262219122445
0.6721895213084356
0.9587296799244959
0.2510871775826494
0.01749532056229219
0.6435466097083653
0.34862172541239284
0.35134519852013224
0.9571640488081329
0.04665302863479146
0.6518066006377009
0.24543607692980252
0.7578140265790988
0.7474787494624762
0.7477987920243474
1.0001848549642551
0.6318849686043464
0.027501593555900098
0.96994790991352
0.9749313748388806
0.20082394900118575
0.38148997176056426
0.24872136880787796
0.9832737248429312
0.014704801101625616
0.7907272884759725
0.3497464560852177
0.1851806944684834
0.3768168251993187
0.030810560540516486
0.18429125506453395
0.9692462540056633
0.9640434213759571
0.19354035832919117
0.2560089486807239
0.010651354369463396
0.4524794021666626
-0.0013585867479731508
0.44258852984200264
0.2605057845480122
0.006820909789238711
0.010540413966144337
0.4367059128668845
0.44502372299150467
0.43603445028339716
0.555133194120786
0.5581408125641845
0.01957263275721839
0.5480186699856201
0.016807858954268343
0.6403074986981855
0.19930947017327885
0.6229690373781472
0.9871164051389841
0.7371944511423375
0.2324083183673094
0.7321726945287597
0.25250321481867605
0.26717597932684184
0.7376504823412849
0.9902278192004238
0.008216678065480721
0.20461960061695356
0.7858679010187649
0.20551191993114323
0.36025334749329385
0.5951339827317457
0.7691019716034582
0.2015788697525392
0.4255104815875852
0.4258018889922074
0.5786570308420084
0.5701803406139687
0.5695879324867305
0.04712287331941526
0.6919648125256765
0.2029844296121967
0.792250250379298
0.7890825207567772
0.558455199202991
0.4338376808502159
0.4427341166423276
0.016572918929037717
0.5588002074623454
0.7841611109283911
0.20891045351267445
0.9929878845819065
0.2608952164002642
0.5518334611996076
0.6192043613958786
0.43937133656145766
0.7871250928338227
0.5492779355169681
0.9827983647073149
0.4594982371172507
0.9615956482852988
0.9617186867190722
0.8193155733516991
0.7814891317895006
0.9366155846791852
0.034219826229724006
0.44697599232599217
0.6510260932929841
0.5506748878736076
0.630369523228973
0.41659662044423346
0.1759771635563316
0.010366571700323972
0.4607612365908051
0.2483190174120637
0.7637827007847028
0.5369607244352831
0.4567502558296763
0.4597827621286523
0.7681867063977817
0.7892445549771929
0.20983263868344842
0.19807999306493393
0.7908515137772596
0.42939738153346246
0.9898114964787187
0.19736377579097955
0.8332934904668834
0.8378307358876554
0.39259533642692396
0.845803737148667
1.00022084607541
0.19328225214944014
0.22611764405637969
0.6336789304778674
0.3616720819611482
0.6307724339679296
0.6388127776736922
0.1510320342177271
0.6162231939680243
0.37640806289069767
0.3762198369981782
0.022594440439761075
0.47700024364225213
0.31147387462976023
0.6798128027869571
0.7013547269555818
0.3755118608430992
0.7994195686687627
0.6218488552836814
0.6213402201619509
0.6049300903327475
0.027901501268900335
0.02980920319870822
0.21975431390286454
0.7600694218189086
0.009112414312934473
0.8340446900971259
0.8448710982284082
0.7787824540906019
0.006073495029907052
0.006390293641347428
0.23964723585205994
0.3778420274172245
0.006391618574629199
0.9955365552764985
0.3665825379382667
0.8175454245822471
0.9987652352501463
0.8000806458826341
0.19223826676045755
0.999319821570647
0.00562525602131917
0.17010912031076109
0.9803374958153565
0.012547364995428625
0.35184933804709273
0.0061749404854442285
0.6484458666154771
0.016504107132822868
0.9956077567688668
0.9994579346356696
0.18060254956366598
0.5331379350915916
0.2195735189323091
0.9909117315922643
0.8081816204638709
0.9911134389192102
0.3861486259554512
0.9899839311735504
0.9979875011735942
0.19317816630793877
0.15596300920088216
0.0031805420602027427
0.3453687475716126
0.6045315029454618
0.5737552712462273
0.4242061911651802
0.5467431504178277
0.9994425249791394
0.2833372660136395
0.5583884537201771
0.998619523118399
0.0006670118380399549
0.007522237360539927
0.2474788432043855
0.43729809377091755
0.5522552185437508
0.008702995220677186
0.8542213962806501
0.9976834962776215
0.8153508237544744
0.15728528541754802
0.8459804233769982
0.8370425697252816
0.593831796383134
0.1542716503828633
0.8307035998780654
-0.00420475019020956
0.33111200310675254
0.01063591581473047
0.8655723608455136
0.1292413288365907
-0.0008678553627281526
0.5630655985463072
0.5597746763070544
0.9993390571470019
0.9984413888283831
0.9891273807083758
0.005680163606550046
0.4454099876975722
0.6216989884073069
0.6271582391089814
0.6273326266795949
0.3688012412423784
0.3653957714183921
0.372793474969895
0.8793676995348226
0.9946907425417368
0.9882487356628191
0.9804103601132024
0.907115437287954
0.6537103367447382
0.6891734879642576
0.001137379690004458
0.11365348832811871
0.7182599794566631
0.6642175204022418
0.31194584406404985
0.8768705341090667
0.1521721087669699
0.1373832878572731
0.6586835048166382
0.5888660282253042
0.44069406365133423
0.9882424181440866
0.9962556806117493
0.7130535616137741
0.15449753287901244
0.8633822098304692
0.27618858387707546
0.8881578593414959
0.10647382094664119
0.9924683087739968
0.008200773675717695
0.39687766176012934
0.591885536020409
0.39410247628138095
0.7639547135555225
0.09826308249687979
0.5613554323499395
0.4116893256360948
0.760104134629864
-0.0011299258582612903
-0.0030632354074751045
0.21828139265919727
0.24537106727070065
0.11332596602732178
0.1715129346383177
0.8743896312071274
0.7615578947889801
0.23168928358791868
0.7207171528856628
0.2738027611634187
0.8589795987555174
0.8335592452277316
0.8302329994034633
-0.005397254901680969
0.8793405797019832
0.38776062555734153
0.27850175339808136
0.9973658532491413
0.23559794786237548
0.5412255775999132
0.6682275317782702
0.5789834758313414
0.5982289136282142
0.09583579383955965
0.8989619172720211
0.8950008602845629
0.12723977696013897
0.709383078270724
-0.00416065510276012
1.0042236221626824
1.0055219644932545
0.08808961300623547
0.11299589246884123
0.8522640240650774
0.29687040079233057
0.8932721204624008
0.4742489537209806
0.7825028149976678
0.004216768931232137
0.5967209482837162
0.392660455317813
0.39944635994981953
0.9986553979179911
-0.0023515437124567128
0.5994503799983885
-0.0003459731963544943
0.4260416034730052
0.12068357656510656
-0.0003432211206097706
0.29755589416499445
0.5883408201139306
0.7481840479335101
0.712592812947991
0.890265781575979
0.10378768807713637
0.2991570870595299
0.25852949769995454
0.693056697369124
1.0017355550604188
0.2804268911182637
0.1278867552048134
0.2611583570952014
0.10463030298884708
0.8627331762232173
0.10349657073544742
0.2692604395845569
0.7226284219496009
0.7233294397623601
0.7310335701297705
0.41935596314074813
0.9997828182774045
0.4109194216156769
0.8488045473672196
0.0019807377770952334
0.108185079640862
0.0900659197676468
0.5670917533045533
0.13115432219651954
0.0030842809263645883
0.07786403614484345
0.12375496239928077
0.43220175482006323
0.5497745727534047
0.0744628146134429
0.2586250288703626
-0.0014034608747277532
0.9985511531762399
0.8353981740732643
0.4420199250090316
0.5508464489004778
0.5920035908956675
0.8735383502367164
0.1087941174631166
0.10672655505516114
0.9942878298110105
0.06995254298964679
0.543345429012712
0.36619543944304245
0.1741891436984513
-0.0018458886274304214
0.7195189508870314
0.8779191460042557
0.21575591874971137
0.19761136887397318
0.774472151208325
1.0044996033395581
0.09376689886840785
0.8861641347098019
0.8845235710515695
0.4541305749908395
0.4515350736771143
1.0014175818297915
0.26440387501180557
0.3683927840449015
0.41143675141088504
-0.0012702525431609723
0.9233012368271296
0.9241989383183014
0.28487397846432505
0.5710893046927491
0.7625321126468173
0.7629743650107923
0.24707601352343347
0.7535731824022418
0.2921744549415353
0.8079510091933008
0.8096063640767438
0.5768588228936055
0.8219285217611301
0.5813941133275998
0.10645989016803784
0.8885572564991328
0.41945912736470464
0.5792495460622719
0.4102567596480054
-0.00654947940503024
0.3503238098721112
0.1020253491794298
0.0009399368743901792
0.5531455924901234
0.18294533875867358
0.270537783781169
0.11261300483689216
0.7196212599345061
0.7954481517329067
0.9364694835808703
0.560741793896265
0.008312001821276999
0.43958343811493583
0.12983134173631616
0.9954734622261825
0.9950715732139206
0.0019488188878235742
0.10308616005829892
0.8915695245739065
0.003613889635061242
-0.004541378355812111
0.29816947199698096
0.6942752518399823
0.46883168892116933
0.9970457765668584
0.3031519207466159
0.7454791909769963
0.2652192322620439
0.7312012421692797
0.26041368267038073
0.9742976052226644
0.0064507467423566885
0.4293974085265823
1.0040226336643003
0.9039553855858999
0.09577886100070597

SCALARS Omega double
LOOKUP_TABLE default
-8.331385605099614
-4.184028215267479
10.645206165381696
16.480104593815202
35.365163976919725
1.1561018536552405
7.532715929420145
7.257801758096008
4.978078388750253
10.244854340730395
4.831026954999341
3.815418479546568
4.103579291633912
6.825072161844423
4.47588480095318
4.760087745659718
4.496014085593079
4.012266455211575
6.251383606326011
2.423480224296486
8.43175765598479
5.438643213676128
2.335034313089611
3.9858419215075815
6.0121620309420765
5.187197926136132
5.934395029699812
3.486702848974674
3.9006861769584487
7.040658218146479
6.096418855678623
5.574732336300793
5.36746671688524
4.686552420216272
3.7611150512572276
4.387014105750251
4.843334530875492
2.9357662984469095
6.54322248837513
6.460201974580872
5.085988838770926
4.571412828676274
4.66785626207393
3.358821174044281
4.0481933015996745
6.163476905918389
6.926371077932182
4.314722022570352
3.969911456755553
9.24170651825885
4.691732382470796
7.874386869252239
14.81069072620314
-5.918440449255408
0.336506579545745
0.8045289784515652
0.4686281196355987
-0.04330740652413233
-0.09411160851951611
-0.2105683012555306
-0.9762107022977531
-3.1666276470096384
-5.771471149024495
-7.548704546026433
-5.314891310076237
-4.435145262885969
-5.997897138640077
-4.808582728352853
-3.9877561170714895
-5.397910749457774
-3.9731248502505143
-4.503396420575415
-3.849242136166785
-2.3024015223546845
-5.984896228520522
-3.602042091192214
-2.7436762863326876
-6.344069524826459
-4.903130763976263
-3.0107904469814573
-6.440350615899003
-5.44337401240871
-5.389150898501213
-5.8324516532521535
-5.916552291882633
-6.342551062130329
-3.5764282726495744
-3.857733158015877
-5.698851973315363
-5.3531457967186595
-4.251290866647517
-3.3484606864123636
-4.927340784018436
-4.6604348733368655
-3.4533376571905836
-4.098890358831659
-5.033525012469452
-4.165896046199952
-4.4829828898009625
-6.279469562469318
-5.821551535719364
-5.75245246857424
-6.5770053238331645
-2.042388814761432
-6.814287320230041
-3.578153595868193
-2.7698012229542033
-7.365351818373197
-5.395914417412371
-2.9689149558859236
-2.684785808035779
-4.415120307009288
1.6814998614007335
-0.07552802568057862
-0.17338085365747102
-0.8085451659146984
1.09618313859517
-5.540613988273831
-1.4216665456744855
-38.078623458500836
0.0015538610955259707
-0.0006811890636976916
0.0037954812916031243
0.002542774847318548
0.0004418953194730771
-0.0036805056548203934
0.0020769070848699746
0.00022138581697156822
0.009875798721564731
0.04965185021692014
0.054469033055841436
-0.08088295678363794
-0.132576310332642
-0.008735433925983848
0.006370598468843262
-0.02367808320091983
0.05922757792953743
0.05191865602285291
0.0579160019279203
0.08949633496384024
0.02507008168635251
0.09409175092070235
-0.11786332413147457
0.05165238027374728
-0.021405945404792858
-0.05158436055177744
0.029152346902279275
0.07235542341350497
-0.11984963664265165
-0.10381502293370393
0.5025828249330139
0.057390015792858795
0.07426311520907648
-0.0016437836575771165
-0.006462016117886518
-0.015020645736696243
-0.21121937457922996
-0.1401311588906269
-0.39075835672719933
0.21556757419852277
0.9789550943974494
0.2911845372818512
0.8925088322964674
-0.0013824903378859942
-0.003733408608310891
-0.0014775459561892801
-1.4473920919174248
2.149598902229026
-1.0419730142730377
2.0061923964250643
-0.3737470097805488
-0.30653929155103155
-0.00020255381398013748
1.1816478821136525
-0.003609457017682361
6.535416756385277e-05
-0.002247993535083312
-0.0009458402532101828
0.0019225102439377544
-0.0008341655072434804
0.0005732811351932796
0.0016509167028598958
0.0006149045517167844
-0.0004911845981266203
-0.003994725312074472
1.4314520851505907
-1.064087982230824
-1.4126163487447534
1.1071763756369706
-1.6226762501331424
-1.0719767847616892
-0.31621948964681196
0.6398709875632004
-0.8201497643900841
-1.0958507371223998
0.5497155129497082
1.101091244699403
-0.7241211880208597
1.266965050103763
-1.7339633975130713
-1.5065838291866616
-0.0016844814371877394
-0.017223627056038908
0.39512766747083206
-0.7128559334502105
0.0050590779069423185
0.02721395521244809
-0.0074379918749654566
1.7114545869593512
-0.005488133823222431
-0.8754219014804029
0.012096085557010507
-0.003584025423699197
-0.03954856856387557
-0.010150395230548436
0.0011414759556194554
0.007033676136302576
0.6193673333169564
0.03594488798950654
-0.08425425468942754
-0.1082386610264131
0.06194815586327263
0.009113095446716492
0.014319057312696474
-0.7983204211977187
0.007899743581687173
0.000334789252324297
-0.0037141161406234443
0.0070868634814407515
-1.3975094510215302
-1.7387243543223665
-2.161189562839487
-1.8973879797359234
-1.571631242669647
-0.005961998813328502
0.4181648508645858
-0.24509278706179016
-0.005651924716286717
-0.02407271164703552
-0.03306490510827439
0.060414462984020555
0.02571755700930877
-0.004903841163781876
0.014810011761564499
0.007785690818675202
-0.005573450857676275
-0.002740505747987992
0.0032464378490076767
0.07461033492803995
1.8950646454018665
-3.5697379474021314
-11.788177683483633
-2.991106576400305
-11.799911904135135
5.407581640232234
5.450635915319081
0.004742485742522474
3.349357846634492
-0.08281157019770298
0.007751784046209512
6.226734367499768
-1.574677065989328
7.199149766093379
1.8547049685361598
-1.821653152289901
3.4139833863446674
0.004207458248172648
0.08156766089403025
6.374305949561946
-0.013358451052013444
-8.891893839516214
-10.346364714254886
-5.31746040915324
1.8792196867475854
5.199952572085668
-0.049822358603639164
8.688118635341555
-0.043056580137257425
-12.241716900856453
-0.002655585064486719
0.01260170426704681
0.016195921464176827
10.907002128774753
-3.253998760562945
-0.0010968328736850855
0.021115394080892587
-0.021522573408837117
0.05334996899979744
0.05152409855367455
16.943014895982962
-0.007620057880202075
-9.221401981215584
8.923200471061609
8.890874177878135
0.06785635394018524
0.01253486327734841
-0.07119043923045812
13.96952547735035
-13.281788704561892
-0.15670091221613744
0.00914329017103487
-0.10789641972092538
-0.0020814742462860482
-8.572555059546053
0.795273173720639
9.559758601743482
7.750652682618577
0.025001181482685292
-0.09082011222076335
-14.666352492139064
0.0019870331561681496
-18.25254680963869
-0.5533127130156585
-0.04069777291294707
-14.55259082069848
-15.125043275034376
0.013790576691011223
0.004381189946378861
0.010569195392731313
-0.011620181074908222
-0.00568109153778096
-11.943793320342431
0.09136828531005052
-13.531442670947648
-0.017920411889395003
-0.11023187726751416
-0.07772130755455466
14.703960631198836
0.0501819677398017
-0.16956148921712985
0.04098955103934328
-0.1804697467446452
-0.009637115638858499
0.07602248669255057
16.26126040845224
-15.237638398663373
0.011291598621913828
0.028715672025979955
-0.07258986077759676
0.018373293408093377
-0.009955987765767133
0.6543129016524801
-0.3226394394723309
9.75310764810357e-05
0.010126966382661124
-0.011351230143435847
-0.007603770653756817
-0.007957670049685566
-5.604530713658274
-1.3664426736693922
0.053514052570632076
0.09217056853310505
0.10130231863247803
-0.010143163790537492
0.004038567181388805
0.0029864846350033856
-15.175762565332462
-0.0013378321623331816
0.20747746501209002
-0.0716851759833728
15.047244396451456
-0.12423698355029388
-0.0050033815561957426
-0.011604037183699564
0.006153799276021318
0.03595881917330358
-0.003352690147903307
14.240751248974096
0.0008372808140053906
7.372008510253073
7.026489972847164
-0.3400642249570861
0.0474672086983195
2.3462108521407923
-7.751240386483659
0.0053308389547931795
-0.014222998036050333
-0.007588898027361081
0.001583834977417175
-0.054247109362821615