# vtk DataFile Version 1.0
2D Simulation C++
ASCII
DATASET UNSTRUCTURED_GRID
FIELD FieldData 1
NODES 1 2 int
715 1308

POINTS 715 double
0.0 0.0 0.0
5.0 0.0 0.0
5.0 1.0 0.0
0.0 1.0 0.0
0.10000000149011612 1.0 0.0
0.20000000298023224 1.0 0.0
0.30000001192092896 1.0 0.0
0.4000000059604645 1.0 0.0
0.5 1.0 0.0
0.6000000238418579 1.0 0.0
0.699999988079071 1.0 0.0
0.800000011920929 1.0 0.0
0.8999999761581421 1.0 0.0
1.0 1.0 0.0
1.100000023841858 1.0 0.0
1.2000000476837158 1.0 0.0
1.2999999523162842 1.0 0.0
1.399999976158142 1.0 0.0
1.5 1.0 0.0
1.600000023841858 1.0 0.0
1.7000000476837158 1.0 0.0
1.7999999523162842 1.0 0.0
1.899999976158142 1.0 0.0
2.0 1.0 0.0
2.0999999046325684 1.0 0.0
2.200000047683716 1.0 0.0
2.299999952316284 1.0 0.0
2.4000000953674316 1.0 0.0
2.5 1.0 0.0
2.5999999046325684 1.0 0.0
2.700000047683716 1.0 0.0
2.799999952316284 1.0 0.0
2.9000000953674316 1.0 0.0
3.0 1.0 0.0
3.0999999046325684 1.0 0.0
3.200000047683716 1.0 0.0
3.299999952316284 1.0 0.0
3.4000000953674316 1.0 0.0
3.5 1.0 0.0
3.5999999046325684 1.0 0.0
3.700000047683716 1.0 0.0
3.799999952316284 1.0 0.0
3.9000000953674316 1.0 0.0
4.0 1.0 0.0
4.099999904632568 1.0 0.0
4.199999809265137 1.0 0.0
4.300000190734863 1.0 0.0
4.400000095367432 1.0 0.0
4.5 1.0 0.0
4.599999904632568 1.0 0.0
4.699999809265137 1.0 0.0
4.800000190734863 1.0 0.0
4.900000095367432 1.0 0.0
5.0 0.8999999761581421 0.0
5.0 0.800000011920929 0.0
5.0 0.699999988079071 0.0
5.0 0.6000000238418579 0.0
5.0 0.5 0.0
5.0 0.4000000059604645 0.0
5.0 0.30000001192092896 0.0
5.0 0.20000000298023224 0.0
5.0 0.10000000149011612 0.0
4.900000095367432 0.0 0.0
4.800000190734863 0.0 0.0
4.699999809265137 0.0 0.0
4.599999904632568 0.0 0.0
4.5 0.0 0.0
4.400000095367432 0.0 0.0
4.300000190734863 0.0 0.0
4.199999809265137 0.0 0.0
4.099999904632568 0.0 0.0
4.0 0.0 0.0
3.9000000953674316 0.0 0.0
3.799999952316284 0.0 0.0
3.700000047683716 0.0 0.0
3.5999999046325684 0.0 0.0
3.5 0.0 0.0
3.4000000953674316 0.0 0.0
3.299999952316284 0.0 0.0
3.200000047683716 0.0 0.0
3.0999999046325684 0.0 0.0
3.0 0.0 0.0
2.9000000953674316 0.0 0.0
2.799999952316284 0.0 0.0
2.700000047683716 0.0 0.0
2.5999999046325684 0.0 0.0
2.5 0.0 0.0
2.4000000953674316 0.0 0.0
2.299999952316284 0.0 0.0
2.200000047683716 0.0 0.0
2.0999999046325684 0.0 0.0
2.0 0.0 0.0
1.899999976158142 0.0 0.0
1.7999999523162842 0.0 0.0
1.7000000476837158 0.0 0.0
1.600000023841858 0.0 0.0
1.5 0.0 0.0
1.399999976158142 0.0 0.0
1.2999999523162842 0.0 0.0
1.2000000476837158 0.0 0.0
1.100000023841858 0.0 0.0
1.0 0.0 0.0
0.8999999761581421 0.0 0.0
0.800000011920929 0.0 0.0
0.699999988079071 0.0 0.0
0.6000000238418579 0.0 0.0
0.5 0.0 0.0
0.4000000059604645 0.0 0.0
0.30000001192092896 0.0 0.0
0.20000000298023224 0.0 0.0
0.10000000149011612 0.0 0.0
0.0 0.10000000149011612 0.0
0.0 0.20000000298023224 0.0
0.0 0.30000001192092896 0.0
0.0 0.4000000059604645 0.0
0.0 0.5 0.0
0.0 0.6000000238418579 0.0
0.0 0.699999988079071 0.0
0.0 0.800000011920929 0.0
0.0 0.8999999761581421 0.0
0.7496038675308228 0.5164291858673096 0.0
1.3451675176620483 0.5190238952636719 0.0
1.9462687969207764 0.4963642954826355 0.0
4.456614971160889 0.5060901641845703 0.0
3.864220380783081 0.4866538345813751 0.0
3.249823808670044 0.482722669839859 0.0
2.6500000953674316 0.5 0.0
0.3810288906097412 0.399004191160202 0.0
2.308779239654541 0.3797946870326996 0.0
1.0499999523162842 0.6625000238418579 0.0
1.644740104675293 0.6598879098892212 0.0
4.150000095367432 0.3375000059604645 0.0
3.555316209793091 0.3343118131160736 0.0
2.9446933269500732 0.3401789665222168 0.0
1.6342840194702148 0.3290160894393921 0.0
1.0591840744018555 0.33908534049987793 0.0
2.9654481410980225 0.6753292679786682 0.0
3.5534629821777344 0.6835107207298279 0.0
4.153462886810303 0.6835107207298279 0.0
2.2139804363250732 0.6805098056793213 0.0
0.4914395809173584 0.6739721894264221 0.0
4.691666603088379 0.6916666626930237 0.0
4.691666603088379 0.3083333373069763 0.0
2.4872219562530518 0.7236665487289429 0.0
0.6240421533584595 0.2677222192287445 0.0
2.0697431564331055 0.2657754421234131 0.0
2.5389034748077393 0.26082900166511536 0.0
0.8147311806678772 0.7450684309005737 0.0
1.2897310256958008 0.743314266204834 0.0
1.8853894472122192 0.7450258731842041 0.0
4.382374286651611 0.23655959963798523 0.0
3.910269021987915 0.25668570399284363 0.0
3.1838724613189697 0.25397706031799316 0.0
1.398239254951477 0.2614254057407379 0.0
3.201760768890381 0.7385746240615845 0.0
3.8017609119415283 0.7385746240615845 0.0
4.39177942276001 0.7466779351234436 0.0
0.25301694869995117 0.7458874583244324 0.0
2.7258167266845703 0.7600342631340027 0.0
0.84163498878479 0.2263137847185135 0.0
0.22429518401622772 0.22429518401622772 0.0
2.7605957984924316 0.22504857182502747 0.0
1.8330284357070923 0.2150011658668518 0.0
0.2192869633436203 0.5323538780212402 0.0
4.7908525466918945 0.5038931369781494 0.0
2.466000556945801 0.5376454591751099 0.0
3.7061264514923096 0.17723728716373444 0.0
3.3929696083068848 0.20266839861869812 0.0
1.4905184507369995 0.7937026619911194 0.0
1.2104878425598145 0.20361483097076416 0.0
3.9895122051239014 0.7963851690292358 0.0
3.389512300491333 0.7963851690292358 0.0
0.5652223825454712 0.5070380568504333 0.0
0.44509074091911316 0.19716571271419525 0.0
2.1318352222442627 0.5042122602462769 0.0
1.548349142074585 0.4954715371131897 0.0
3.050636053085327 0.5004673004150391 0.0
0.9511125087738037 0.498258113861084 0.0
3.651650905609131 0.5045284628868103 0.0
4.248488903045654 0.4980509281158447 0.0
1.1537858247756958 0.49593159556388855 0.0
4.050199031829834 0.49993085861206055 0.0
3.464722156524658 0.509624183177948 0.0
1.749653697013855 0.5001751780509949 0.0
2.851828098297119 0.5057260394096375 0.0
2.359710216522217 0.1888567954301834 0.0
2.0499017238616943 0.8199846148490906 0.0
0.6430503129959106 0.8181284070014954 0.0
4.560274600982666 0.1724673956632614 0.0
4.55863094329834 0.8299665451049805 0.0
2.321284055709839 0.8242537379264832 0.0
4.815218925476074 0.8345447778701782 0.0
4.837246894836426 0.16590170562267303 0.0
0.9682294130325317 0.8331464529037476 0.0
1.730908751487732 0.827606201171875 0.0
4.220076560974121 0.17516615986824036 0.0
3.02066969871521 0.18326662480831146 0.0
1.5634372234344482 0.17044226825237274 0.0
3.035303831100464 0.8294908404350281 0.0
3.627507209777832 0.8360387086868286 0.0
4.2312469482421875 0.8315803408622742 0.0
4.618130683898926 0.5361976027488708 0.0
0.40311703085899353 0.8369210362434387 0.0
1.1473191976547241 0.8458209037780762 0.0
4.052680969238281 0.15417908132076263 0.0
2.020958423614502 0.6394158005714417 0.0
0.662188708782196 0.6447370648384094 0.0
4.5115838050842285 0.3538685142993927 0.0
1.0221220254898071 0.15309639275074005 0.0
0.3837882876396179 0.5515117049217224 0.0
3.548090934753418 0.15800617635250092 0.0
1.4348299503326416 0.6465393304824829 0.0
3.765170097351074 0.3534606993198395 0.0
3.3348300457000732 0.3534606993198395 0.0
1.2546738386154175 0.36384353041648865 0.0
3.945326089859009 0.636156439781189 0.0
3.3412928581237793 0.637225866317749 0.0
2.1904795169830322 0.17066854238510132 0.0
0.16392111778259277 0.38331863284111023 0.0
2.87723445892334 0.8265392184257507 0.0
4.8459792137146 0.6499902606010437 0.0
4.845625400543213 0.34837812185287476 0.0
2.771622896194458 0.38129922747612 0.0
4.5222978591918945 0.6578375697135925 0.0
2.604464530944824 0.8240283727645874 0.0
1.8544400930404663 0.3751189708709717 0.0
0.8566747903823853 0.38255012035369873 0.0
2.2932615280151367 0.5369129776954651 0.0
2.620572805404663 0.6496497392654419 0.0
0.7172287106513977 0.1490369737148285 0.0
0.1410960853099823 0.8303417563438416 0.0
1.7142322063446045 0.142862930893898 0.0
2.6314175128936768 0.14492936432361603 0.0
1.9832650423049927 0.1408119648694992 0.0
2.445650577545166 0.370038241147995 0.0
2.885042667388916 0.1455758661031723 0.0
0.13937503099441528 0.6546638011932373 0.0
0.9110832810401917 0.6349053978919983 0.0
3.088575839996338 0.3613528311252594 0.0
4.296638011932373 0.3563385307788849 0.0
1.1930090188980103 0.6355591416358948 0.0
1.788455843925476 0.6387236714363098 0.0
4.006990909576416 0.3644408583641052 0.0
1.4459187984466553 0.39242905378341675 0.0
4.354081153869629 0.6075709462165833 0.0
3.7540812492370605 0.6075709462165833 0.0
3.1591691970825195 0.6018876433372498 0.0
2.7615907192230225 0.6205627918243408 0.0
2.36276912689209 0.6735464930534363 0.0
1.3681535720825195 0.8630191683769226 0.0
3.8318464756011963 0.1369808316230774 0.0
3.275517463684082 0.10712132602930069 0.0
0.5630941987037659 0.12814241647720337 0.0
1.3237862586975098 0.10638008266687393 0.0
3.2733232975006104 0.8705052733421326 0.0
3.8733232021331787 0.8705052733421326 0.0
2.0396511554718018 0.38928428292274475 0.0
2.2168734073638916 0.8508136868476868 0.0
0.5163488388061523 0.3409615159034729 0.0
0.6547463536262512 0.3955095112323761 0.0
1.9480526447296143 0.8710126876831055 0.0
4.689375877380371 0.13700176775455475 0.0
4.698264122009277 0.8675068616867065 0.0
0.7578787803649902 0.8698469996452332 0.0
2.479548454284668 0.13692785799503326 0.0
2.4562506675720215 0.8735422492027283 0.0
2.171211004257202 0.3573116958141327 0.0
3.5117530822753906 0.853193998336792 0.0
4.107914924621582 0.8658969402313232 0.0
2.640726327896118 0.354434996843338 0.0
4.346996307373047 0.1279495507478714 0.0
0.3128283619880676 0.11246757209300995 0.0
0.136248379945755 0.12152919173240662 0.0
4.453908443450928 0.8629162907600403 0.0
1.6064813137054443 0.8679171800613403 0.0
0.3380795121192932 0.6626779437065125 0.0
0.5102446675300598 0.875635027885437 0.0
0.7425088882446289 0.2989330589771271 0.0
3.1349449157714844 0.10448489338159561 0.0
1.3287748098373413 0.6181886196136475 0.0
3.871795415878296 0.38215625286102295 0.0
3.229135036468506 0.3810797333717346 0.0
0.28971707820892334 0.8759857416152954 0.0
0.9214505553245544 0.11992674320936203 0.0
1.9219478368759155 0.6237660050392151 0.0
1.530794620513916 0.29603153467178345 0.0
3.072223663330078 0.7044162750244141 0.0
3.6722235679626465 0.7044162750244141 0.0
[...]
POINT_DATA 715
SCALARS Psi double
LOOKUP_TABLE default
0.0
0.0
1.0
1.0
1.0
1.0
1.0
1.0
1.0
1.0
1.0
1.0
1.0
1.0
1.0
1.0
1.0
1.0
1.0
1.0
1.0
1.0
1.0
1.0
1.0
1.0
1.0
1.0
1.0
1.0
1.0
1.0
1.0
1.0
1.0
1.0
1.0
1.0
1.0
1.0
1.0
1.0
1.0
1.0
1.0
1.0
1.0
1.0
1.0
1.0
1.0
1.0
1.0
0.918242669906078
0.8622483319845686
0.7601644988379326
0.6269752317680252
0.47559158706074656
0.3223955114942111
0.18488599845309772
0.0783396472070506
0.02098662998373453
0.0
0.0
0.0
0.0
0.0
0.0
0.0
0.0
0.0
0.0
0.0
0.0
0.0
0.0
0.0
0.0
0.0
0.0
0.0
0.0
0.0
0.0
0.0
0.0
0.0
0.0
0.0
0.0
0.0
0.0
0.0
0.0
0.0
0.0
0.0
0.0
0.0
0.0
0.0
0.0
0.0
0.0
-0.0
0.0
0.0
0.0
0.0
0.0
0.0
0.027338484177422705
0.10766685571376212
0.20918335861698478
0.3108086127471809
0.4123860361360075
0.5107369525131786
0.6025608646093203
0.6783862452221334
0.6416105216376066
0.5298179488116034
0.5398427484516611
0.5013606935090765
0.49469238816511285
0.46885551077282583
0.46957441884506435
0.5124461114753918
0.3202397223884882
0.31656652970005056
0.7711492929107414
0.7570354004747184
0.23384493913216872
0.22725967927703497
0.25108323347114986
0.23225634623179078
0.25662243673439783
0.7872897830966913
0.7827868875160862
0.7802111349823803
0.7943756467288059
0.7596783511147769
0.7802278257957382
0.1865554945868507
0.8515608025258535
0.15676297989454083
0.15144397102965212
0.14646322897563177
0.8809642508982864
0.8716775522158446
0.8712094927363268
0.09630728241783414
0.1272844556264664
0.12594676394567264
0.1385898700320857
0.8637605464314491
0.8569774984695986
0.8632687976148723
0.7933493625070651
0.8975815332684061
0.11093216769173178
0.11123140835577906
0.1006271819395172
0.08644909873875692
0.4644409090951285
0.48398944020603313
0.5744802960889472
0.041487479435339765
0.06403562961515556
0.9250197508152451
0.0709682643076758
0.9217344479707128
0.9225860077268634
0.4952394353345696
0.07110982677819785
0.5171435137136428
0.49834723300967965
0.505734181596948
0.509372800177048
0.4988109466136245
0.4846632828497518
0.5054955037256591
0.48966891526971384
0.5088714529088738
0.5055963642699742
0.5196417843452912
0.06058051592624534
0.9521361266303463
0.958979888292857
0.039441060209968286
0.9513040616698091
0.9586650643785722
0.9397328980637358
0.03198267329017376
0.9635722856381428
0.9541783191383908
0.04243198533198448
0.05399572334931405
0.04239995857652364
0.9639737790370376
0.95932677446708
0.9558369932006507
0.5405441931825212
0.9785690028696307
0.9701184334911234
0.03130102448319095
0.7300866882359136
0.7341098764084312
0.2524668252336158
0.037017656120736174
0.5290864663994145
0.02966733126735742
0.7397031685533869
0.2562277954778533
0.25912210871867064
0.28930219734507023
0.7093194888091687
0.716683140940687
0.046973109339375846
0.2947186893213809
0.963456322781327
0.70975487542649
0.2399962531607402
0.3182531694285067
0.7369457600214059
0.9590417508862178
0.3046687732720819
0.32286880546806834
0.5720917057748962
0.7514076408976721
0.03719159746150457
0.8225369734042437
0.02677814080778076
0.0288284072982484
0.026487727964445575
0.3023580531076307
0.027308556756157995
0.5837016451987301
0.7299732985820215
0.27916912589741516
0.258945797415186
0.7281402612089724
0.7257106867990355
0.2750203858881916
0.33170526692244895
0.6611807454681624
0.665691530598403
0.6677423576295481
0.7060694941020865
0.7838920421485424
0.9780885484311129
0.01830127224029094
0.0014920444221186815
0.02121727050743922
0.0008694119772824868
0.9805775595277909
0.9814520356615876
0.3299203610746065
0.9757571372015464
0.24948641829055312
0.3344465306052445
0.9849680175990905
0.020978777638918217
0.9778252111406612
0.9849468210347573
0.02439474923046961
0.9840135138874224
0.28132016194196835
0.9681584428242861
0.9790460011529808
0.278244811227093
0.0059032473693763085
0.00601400286168055
0.02258268777208129
0.9763738037214329
0.9800144755125766
0.6940552342610447
0.9921479693394247
0.20017492568270617
0.002833545896947618
0.6983488822831952
0.3018071296327493
0.3054260848352323
1.0187376130179504
0.02182590076493587
0.7041744640463029
0.18545173435854437
0.8242592768665081
0.8109594379827674
0.8082744751385793
1.006497831379136
0.6884900139974338
0.00417694612777297
0.9946231172283664
0.994277573447028
0.1549762562349113
0.33304578559748077
0.18957965812920902
0.9959946908801278
0.003663489873577483
0.8648872832813465
0.29844922309261046
0.12847818088911425
0.3408146012137062
0.012172292238194458
0.16195838556128456
0.9903255693350108
0.9902145121870256
0.13238828883937484
0.19594247873245843
-0.0018817923224694448
0.4467574549056573
-0.003856221868985443
0.4046764478701745
0.19906576587787309
-0.004138188041518001
0.00031522408751327274
0.4123435634958447
0.4302187640299064
0.414523007908683
0.5904539631962555
0.585238448788962
0.0030709940366864317
0.5536673529900654
0.0016321640914652696
0.6934143103571997
0.1352521108236896
0.6019941363300342
1.001464384526329
0.7975954413359737
0.17540937128692913
0.7958504485310341
0.18583793563162518
0.20503660699557572
0.8077635015159055
0.998782385592205
0.0014306029703596865
0.1362235747005006
0.8591204301247272
0.1362969249283842
0.3314737146158804
0.6164832726649209
0.8222180997879411
0.11624999087160198
0.40910129746608065
0.4170876299120235
0.6082246624193125
0.592819369567467
0.5879402231696126
0.020270689365591597
0.6537992926375226
0.14021040507243882
0.8599164652963164
0.8552358954076851
0.5915887969388167
0.4101121813852211
0.4240446076623293
0.0034925675245110876
0.585808522707419
0.8643707231362474
0.13959071817495042
1.006970675224588
0.20356225727108823
0.5740450033137292
0.6576876392341535
0.41073927843322905
0.858523250452423
0.5808451551113623
0.9994707670209912
0.45664679630685434
0.9877691484652261
0.9869252134883049
0.8899373113244603
0.8670776697129992
0.9578382248244821
0.0070618018747699235
0.4238066122833087
0.7041095501946144
0.5758939656880111
0.6796597008572142
0.37654308092362576
0.10828035502395034
-0.0013803675314512248
0.441917021284677
0.21135772373920092
0.8364773864957593
0.5597092244154106
0.4412276834489598
0.4457618105738249
0.8511468857803106
0.8751951696583675
0.1412209615965355
0.12801627945167063
0.8626707806504597
0.4162371997266999
0.9992263277223427
0.14225792045456961
0.9000798314586337
0.9011296891313927
0.36287027182573
0.9145166526739017
1.0039929450174738
0.11988482010591703
0.15034735735167268
0.6703419864570842
0.3267310453203902
0.6708327791929201
0.6838940572020544
0.08799896483255003
0.6613556129067014
0.3373379333189758
0.3363516442247075
0.006509146102757459
0.47679555319900874
0.265466436182013
0.7303357031518246
0.7583561150643572
0.3431101866591868
0.8745386445200402
0.6598584662739986
0.655716358199466
0.6312438635808052
0.007802813492260051
0.0077807451155480776
0.1399664623714546
0.8180873103886185
-0.0034547551480528997
0.9158629401564923
0.9141993516564265
0.8425339017461819
-0.0038081342675292777
-0.003357117915876131
0.190011696108401
0.3470700325476831
-0.00026209486173687927
1.0006139554342377
0.33716405514123815
0.8821872105283531
1.0003148163152678
0.8811358144828545
0.12489974132616066
1.0063945711329434
-0.0021846567668389735
0.10857613329084366
0.9952404581063146
-0.0007125759679619738
0.3193464995142061
0.0005705037948111444
0.6865099096240674
0.0037650672580225126
1.0023815048852451
1.0048446883836764
0.1145833249493872
0.4930592936227075
0.15837437746384156
0.9977550931459295
0.8842034107918569
0.9992134796232754
0.3378911474279339
0.9993156726754366
1.0027707269021073
0.1347654199742028
0.09087076023697589
9.094667692508611e-05
0.2886390454017099
0.6483245841977808
0.58543259555545
0.4124139217344226
0.5590422759705103
1.0043510142842804
0.25548454049392216
0.5695250100466919
1.0003362190822704
0.0001570288645442615
-0.001574970694207508
0.19456244802179565
0.4069797385794423
0.5794531591431523
-0.0019881388048016515
0.9167935736022311
1.0058907809031488
0.8846646710636259
0.0935654387992556
0.9106671865998052
0.9031023022827115
0.6328627972421281
0.08289287996477866
0.8917258230587066
-0.002033984552941329
0.28820752479817163
0.002611769617956375
0.930014446695517
0.07038235841413043
-0.0017603745272239896
0.5832140179035112
0.5398054399601477
1.004622261198494
1.015438708242907
1.0018311839588276
0.0012882554841002049
0.43516162079293613
0.6779281936124515
0.6837799021674628
0.6743078483675125
0.3247398174230474
0.32092420303110014
0.33427694215994924
0.9427940444954976
1.0354116836402598
0.9973481781061729
0.9944519897074151
0.9626814862572999
0.6845714796319955
0.7546890922923105
-0.00230355610516053
0.06484809800050242
0.7871305480116154
0.7019492426373091
0.24298069398492014
0.8726524764401054
0.08877266415185182
0.0790846034567155
0.7164579496980132
0.6146318222947093
0.434547629222794
0.9981817404156844
1.0015559944941361
0.7670145762235542
0.10044210415788943
0.9293844125678044
0.21980237298231034
0.9510974532148461
0.05672244226740852
1.0004772704908946
0.0021227774494450152
0.37331303599484567
0.6113005517466397
0.36796438141270804
0.8331179314862364
0.04409207070491728
0.5917366360865942
0.37541967098802953
0.8314279000754675
-0.0013899813918906011
-0.003828009794064269
0.18939719275600989
0.17946191975100742
0.05772981403652389
0.10991130569354667
0.9454027963000259
0.8361818816411106
0.16565301430507717
0.799244106156008
0.21043703896659205
0.9067832754522097
0.8975840334453687
0.8973403292662222
-0.005088114123959348
0.9385418467994919
0.35857267065670523
0.22466421415596782
1.0006861802079479
0.17518593779602826
0.5549312772116941
0.7094282409522441
0.6046901450018808
0.6407093420046498
0.044370364368523686
0.9497770222207476
0.948393033307935
0.06023835131630879
0.6961898132469683
-0.0065154416007301335
1.0064496764131592
1.0041179819236987
0.03811695535035193
0.047507145800371985
0.8918090691118241
0.2518224002659181
0.9456337116401156
0.45524875678709953
0.8575909049188702
-0.00040323499238620087
0.6378499206281051
0.35800268407226343
0.367157752034194
1.0014719018274008
-0.0023749655504420896
0.5572602677280932
-0.007539999549116098
0.41323063737601035
0.06825284469243338
-0.0011408221527578091
0.2389299247179892
0.6241044235518277
0.720252896817578
0.7776853447381064
0.9472677895804255
0.050135842103839
0.24985260362018308
0.19121926154088034
0.7686822299962491
1.0048961600576627
0.23315431482689145
0.07280098277256959
0.19229792796357364
0.05677931948484315
0.9256787126653417
0.04900684363439095
0.21332365712980292
0.779313885951281
0.7829471835310096
0.7938431094334885
0.4079680578815045
1.005825159573324
0.37521382034927586
0.9147825144964801
-0.0015040764913321894
0.05242450556624113
0.04227173647205427
0.5960560459447565
0.07422728609077262
0.0021049837777255844
0.05986112217625078
0.08153846420194297
0.4201435271084383
0.5593975674054888
0.03162079454362836
0.2027614591967541
-0.001820773756727541
1.0002240775620879
0.9186634993885955
0.4331615751415942
0.5659290894655855
0.621480710640765
0.9352197255072321
0.05350628456923284
0.051392767409400596
0.9982249850629674
0.03195737023559962
0.5059764033015464
0.33407930853036927
0.11868466919536663
-0.0011004127567744069
0.7887306660769297
0.9493450200887742
0.14766787155505828
0.1301849142962694
0.8463416713074401
1.0018754028355021
0.045590831530997085
0.9404137871938072
0.9395659504014544
0.4479057250203647
0.44278564720167607
1.0010244753193482
0.2146622554207088
0.3346068367930136
0.3784930824080882
0.00018152186256482932
0.965628652956808
0.9666862008086544
0.24443484469731452
0.5919680062669614
0.8247743322055527
0.827750904917661
0.19143803300169016
0.8266946712616361
0.24163418972767894
0.8757038661785453
0.874523648356319
0.6184450727844564
0.8903356091093793
0.6145266824279842
0.05408981318921088
0.9494159687369553
0.3947635710901116
0.6196227245434459
0.3795399685281728
-0.007935166263754725
0.3125208353512734
0.056757902326665506
-0.0008108376663011244
0.564570452838768
0.11917987316064031
0.22163509797725084
0.08606886731710055
0.799715094413697
0.8712976578052778
0.97445090014923
0.5815306116090597
0.003171191151588339
0.41008899127674914
0.07807386167173261
0.9993329745707021
1.0004133622009241
-0.0011765696340782432
0.057891051773628896
0.9430954064597894
0.00037644787737946777
-0.005030768425705911
0.23985606095709314
0.7613677907430189
0.4367107765544859
1.0031375478464375
0.23446792867432056
0.8144775552500444
0.20156352571024558
0.8013981755881332
0.19678518886449492
0.9787454564384166
0.001780912559916803
0.41543473881777065
1.0008305143095344
0.957892892525196
0.04526832793415471

SCALARS Omega double
LOOKUP_TABLE default
-7.675844761364483
-1.2294668659973176
8.517159203835671
15.920284330184382
36.51987805353085
-6.478139085624756
2.430378434961881
-4.453054442876128
-0.42028102655160826
1.9200485635033453
0.042406937279211285
-0.6556704043746009
0.435575473329523
1.1375521287179722
0.11941806588525998
0.8401127134282105
0.49132902271115875
0.8170603365166035
1.6514226290397507
-0.12429032782881547
1.498574826802985
1.2991574662349956
-0.5346145652463511
0.49574609146663945
1.073004038287566
1.0438098037219012
0.7185606671762832
0.19537387497738087
0.4332467647813588
1.4132417422703634
1.112667098179543
0.11317699707864824
1.3545587556152356
0.8580959635535855
0.42713833141179997
1.1846782616473823
0.773112401711185
0.39245165226688405
1.3852216546402185
0.7015824967459873
1.458374506853468
0.7416756225238399
0.42669725108793644
0.3767184073956829
0.9980833222652823
0.7766477455199278
2.286808130975592
0.49399079110371297
-0.5466633859768767
2.2968862686914124
0.9418871499433852
1.9861318522349498
9.667975795248703
-7.598569761015121
0.41194992889337856
2.5017565493599294
1.4361675576033595
-0.05307124961527109
-0.7867119969544317
-2.2741859952080135
-3.0061393976290174
-1.8123133755438756
-0.3284897910678316
-0.790448087166653
-1.1559490497858902
-0.06715886329823846
-0.7784632517079036
-0.3724984344789894
-1.1033218818599093
-0.855300237330108
-0.303769970804519
-0.7480167140423106
-0.4571937199177645
0.16523866007544222
-1.8431251433244409
-0.6362118630956916
0.4675973741630895
-1.5380825248504126
-0.5848202307888569
-0.2545578628011384
-1.1550257550695906
-0.8321298584425765
-0.4296557123311728
-1.1685416102090957
-0.9529824228388237
-1.535591282698803
-0.10979110254170064
-0.564206149018513
-1.0819356394446091
-1.2007882951444404
-0.7923506477173083
0.7679216843536348
-1.4989491254176606
-1.310187260984854
0.25856021109900573
-0.8960882516670751
-1.1515855641748571
-0.1365575406682102
-0.5408608026432391
-1.5379731669131005
-1.5323829793993573
-0.3252605790054646
-1.8983986340828687
-0.47229392217644733
-2.049980231855385
-0.49638958182531046
-0.13904462259440428
-2.06718286075032
-1.9111174119005565
-0.8182682103888265
0.751600832752587
-4.59327445534866
2.64579387003068
0.3122366842891497
-0.02442421174239944
-0.8567831258781644
1.650229803374444
-5.886976354602319
-2.337014841923503
-42.61334258623596
-0.5016170849704573
0.4019386589563758
0.043863415779659916
-0.09236803339735966
-0.2140915210473021
-0.2240145938156808
0.15663987363976553
-0.38043859826592863
-1.383352312449653
2.8741628656233864
2.1315992783130078
-2.325731446787199
-2.407938769878466
-2.0904905680595633
-2.31109907820754
-1.8374731737617085
2.6135683824942753
2.500297300045243
2.373406946781067
2.691226915735439
2.314796694094777
2.56790985759747
-2.8691069785271393
3.6698422346428496
-2.5962575969606467
-3.6447417234490533
-3.680553376603749
5.211035289783823
3.955554565301323
3.8619627384213318
-4.545095378769705
-3.984721453682203
-4.046017367601758
-3.79262866674644
3.958870952562303
3.6596554856960277
3.939411035837154
1.9617481395466012
4.443384120699364
-3.9664804240765745
-1.702632208077157
-4.488731677161578
-4.846966659303676
-1.4219579994898406
-0.11264028295691672
0.6176165664032643
-6.420641920764997
-5.480347245066833
4.926629483835275
-5.127446460855389
5.174538574186217
4.994853298780468
-1.2676836840977592
-4.902131841066597
0.1641448915457746
0.08895313809263086
0.056922894194499786
-0.13579650604964533
-0.011139276610984556
-0.15251941725108698
0.09291474053743942
-0.09272290889945371
0.048357846355700215
0.08862044307360221
0.1716890609374543
-5.688170210228031
5.538121670493066
7.369122746548974
-6.014031284015284
5.999195183651616
6.0498973494073365
6.156694638426185
-5.716992640789412
5.810173555294164
5.468820577445789
-5.747860143810134
-5.547563862794561
-6.484747338090142
6.736137132866006
5.883164546662762
5.926567536641909
0.2006356909576982
13.241097903563213
5.892864281738098
-5.794166706139538
1.9255740416308764
2.2596084375795153
-1.9765338592474722
-5.533546843812349
-2.3456951119101626
-6.147245713505755
2.0281393261305625
-2.013747532621844
-2.073721066989419
-1.543066779546621
1.5398560494251585
1.7855800221385898
-5.7021041530868875
0.08818129619645532
6.26865131021264
1.433784690106973
-1.736345946056404
-1.3649590875011197
1.847337926409032
5.763658202223503
-1.4874185856098847
-1.2021396696243143
0.5651778518587424
2.190392031101184
-6.149275953293386
-1.8789182001178648
-6.387085289034326
-6.382378027691809
-6.634810786891046
-1.4936244740264173
-6.463269329470955
-4.515637700494153
2.389839647029604
-1.8668275658832396
-2.004569526085394
2.18112917259823
1.8648931774423354
-1.8037695753959206
-1.1676655303553958
1.103711499560076
1.2285166418875533
1.3049877849939846
1.708993206281181
2.682575230735413
6.138715438461352
-6.841439577804664
-7.818576145810573
-6.645794567485468
-8.65915533011382
6.648998088843554
7.287288847803541
-1.2224153111786988
6.922132476803781
-0.9203745406799626
-1.0044306096111493
6.942513094821829
-5.79918949306013
8.308206779651947
6.078378541325816
-6.531330430067044
5.809817227162053
-1.703099868711226
5.908667497280122
7.423748519413785
-1.7177132931207364
-8.899431145058731
-10.842660916523528
-8.802921321505645
6.933459896268132
6.2105747669156015
-1.0400859146578203
7.095095046754686
-2.158185209758572
-8.223678563508086
1.7447559016173362
-1.5334306361217551
-1.6405782200552868
23.711757297986598
-6.31074351273616
1.7032494695148226
-3.020427661981859
3.2212345383432344
2.849692232611917
2.8002263197703723
7.903434146489928
1.6039636746272408
-8.56132007376334
8.966637756918002
7.267015943771408
-1.4515592526653025
-1.1741573967319037
-2.884760613305272
7.227588964674623
-7.113664298582945
3.8202305568988892
-1.5758767294692184
-3.6940034918427145
-0.44697065154808113
-6.734076664223255
3.283115974944586
7.960571695168203
5.667192813137732
-3.867161926556349
-2.836318729019306
-10.224046035748525
-0.28479819986309823
-8.687992196275767
-1.406418077391429
-2.7237075611708135
-9.03029694486874
-8.196409255361717
-0.6316055269375958
-0.4637052117109813
-0.6354527450481768
0.7084908101513562
0.6467689852671946
-7.813427679184009
1.228286274242392
-9.727831860862151
1.6583914009421157
-3.79181389835152
-4.133047355450057
10.236019358337613
2.6720998977372266
-2.8778879142194955
2.753986559523606
-2.992554580957333
-2.703720279546718
2.7452677998831065
7.053417236479723
-6.865919302788597
-3.814772267092523
3.6174054758014003
-3.8302382055562623
-1.158038086597905
0.7653856913203674
5.062327592089913
-8.547483230869668
-0.5500958749572065
-0.6004706479112777
0.8006598562665012
0.6807928848002279
0.5364870393188088
-6.760158958614108
-8.020163189772314
-3.641251334165606
3.8056302259296544
3.5911216371752093
0.8080770144589068
-0.6243233345944073
-0.5499438584423103
-9.582915616862735
0.6324615830735708
4.0617299615136115
-3.6525068354188823
9.901784283337912
-2.6466175452964933
-0.4404340388198762
0.20160127543273842
-0.6257293971390177
3.696954823679142
0.23581539797859305
9.126856463923952
-0.22575568404603985
7.112260263106395
6.575084302049379
4.231436809084017
5.506923076037567
3.29150878761252
-8.409427221037891
-1.295628343795959
1.6149020664130562
0.5692139305732473
1.4238426001093596
-1.328691059981294
-4.357466685672452
-9.984242268782223
-0.44649630149793973
0.7358788490017822
3.326032438589442
0.5166535287970928
-0.41803933982635505
-0.40441182562023165
5.48754178315284
4.821740234545333
-3.764456246019203
-3.7777399778067786