# vtk DataFile Version 1.0
2D Simulation C++
ASCII
DATASET UNSTRUCTURED_GRID
FIELD FieldData 1
NODES 1 2 int
715 1308

POINTS 715 double
0.0 0.0 0.0
5.0 0.0 0.0
5.0 1.0 0.0
0.0 1.0 0.0
0.10000000149011612 1.0 0.0
0.20000000298023224 1.0 0.0
0.30000001192092896 1.0 0.0
0.4000000059604645 1.0 0.0
0.5 1.0 0.0
0.6000000238418579 1.0 0.0
0.699999988079071 1.0 0.0
0.800000011920929 1.0 0.0
0.8999999761581421 1.0 0.0
1.0 1.0 0.0
1.100000023841858 1.0 0.0
1.2000000476837158 1.0 0.0
1.2999999523162842 1.0 0.0
1.399999976158142 1.0 0.0
1.5 1.0 0.0
1.600000023841858 1.0 0.0
1.7000000476837158 1.0 0.0
1.7999999523162842 1.0 0.0
1.899999976158142 1.0 0.0
2.0 1.0 0.0
2.0999999046325684 1.0 0.0
2.200000047683716 1.0 0.0
2.299999952316284 1.0 0.0
2.4000000953674316 1.0 0.0
2.5 1.0 0.0
2.5999999046325684 1.0 0.0
2.700000047683716 1.0 0.0
2.799999952316284 1.0 0.0
2.9000000953674316 1.0 0.0
3.0 1.0 0.0
3.0999999046325684 1.0 0.0
3.200000047683716 1.0 0.0
3.299999952316284 1.0 0.0
3.4000000953674316 1.0 0.0
3.5 1.0 0.0
3.5999999046325684 1.0 0.0
3.700000047683716 1.0 0.0
3.799999952316284 1.0 0.0
3.9000000953674316 1.0 0.0
4.0 1.0 0.0
4.099999904632568 1.0 0.0
4.199999809265137 1.0 0.0
4.300000190734863 1.0 0.0
4.400000095367432 1.0 0.0
4.5 1.0 0.0
4.599999904632568 1.0 0.0
4.699999809265137 1.0 0.0
4.800000190734863 1.0 0.0
4.900000095367432 1.0 0.0
5.0 0.8999999761581421 0.0
5.0 0.800000011920929 0.0
5.0 0.699999988079071 0.0
5.0 0.6000000238418579 0.0
5.0 0.5 0.0
5.0 0.4000000059604645 0.0
5.0 0.30000001192092896 0.0
5.0 0.20000000298023224 0.0
5.0 0.10000000149011612 0.0
4.900000095367432 0.0 0.0
4.800000190734863 0.0 0.0
4.699999809265137 0.0 0.0
4.599999904632568 0.0 0.0
4.5 0.0 0.0
4.400000095367432 0.0 0.0
4.300000190734863 0.0 0.0
4.199999809265137 0.0 0.0
4.099999904632568 0.0 0.0
4.0 0.0 0.0
3.9000000953674316 0.0 0.0
3.799999952316284 0.0 0.0
3.700000047683716 0.0 0.0
3.5999999046325684 0.0 0.0
3.5 0.0 0.0
3.4000000953674316 0.0 0.0
3.299999952316284 0.0 0.0
3.200000047683716 0.0 0.0
3.0999999046325684 0.0 0.0
3.0 0.0 0.0
2.9000000953674316 0.0 0.0
2.799999952316284 0.0 0.0
2.700000047683716 0.0 0.0
2.5999999046325684 0.0 0.0
2.5 0.0 0.0
2.4000000953674316 0.0 0.0
2.299999952316284 0.0 0.0
2.200000047683716 0.0 0.0
2.0999999046325684 0.0 0.0
2.0 0.0 0.0
1.899999976158142 0.0 0.0
1.7999999523162842 0.0 0.0
1.7000000476837158 0.0 0.0
1.600000023841858 0.0 0.0
1.5 0.0 0.0
1.399999976158142 0.0 0.0
1.2999999523162842 0.0 0.0
1.2000000476837158 0.0 0.0
1.100000023841858 0.0 0.0
1.0 0.0 0.0
0.8999999761581421 0.0 0.0
0.800000011920929 0.0 0.0
0.699999988079071 0.0 0.0
0.6000000238418579 0.0 0.0
0.5 0.0 0.0
0.4000000059604645 0.0 0.0
0.30000001192092896 0.0 0.0
0.20000000298023224 0.0 0.0
0.10000000149011612 0.0 0.0
0.0 0.10000000149011612 0.0
0.0 0.20000000298023224 0.0
0.0 0.30000001192092896 0.0
0.0 0.4000000059604645 0.0
0.0 0.5 0.0
0.0 0.6000000238418579 0.0
0.0 0.699999988079071 0.0
0.0 0.800000011920929 0.0
0.0 0.8999999761581421 0.0
0.7496038675308228 0.5164291858673096 0.0
1.3451675176620483 0.5190238952636719 0.0
1.9462687969207764 0.4963642954826355 0.0
4.456614971160889 0.5060901641845703 0.0
3.864220380783081 0.4866538345813751 0.0
3.249823808670044 0.482722669839859 0.0
2.6500000953674316 0.5 0.0
0.3810288906097412 0.399004191160202 0.0
2.308779239654541 0.3797946870326996 0.0
1.0499999523162842 0.6625000238418579 0.0
1.644740104675293 0.6598879098892212 0.0
4.150000095367432 0.3375000059604645 0.0
3.555316209793091 0.3343118131160736 0.0
2.9446933269500732 0.3401789665222168 0.0
1.6342840194702148 0.3290160894393921 0.0
1.0591840744018555 0.33908534049987793 0.0
2.9654481410980225 0.6753292679786682 0.0
3.5534629821777344 0.6835107207298279 0.0
4.153462886810303 0.6835107207298279 0.0
2.2139804363250732 0.6805098056793213 0.0
0.4914395809173584 0.6739721894264221 0.0
4.691666603088379 0.6916666626930237 0.0
4.691666603088379 0.3083333373069763 0.0
2.4872219562530518 0.7236665487289429 0.0
0.6240421533584595 0.2677222192287445 0.0
2.0697431564331055 0.2657754421234131 0.0
2.5389034748077393 0.26082900166511536 0.0
0.8147311806678772 0.7450684309005737 0.0
1.2897310256958008 0.743314266204834 0.0
1.8853894472122192 0.7450258731842041 0.0
4.382374286651611 0.23655959963798523 0.0
3.910269021987915 0.25668570399284363 0.0
3.1838724613189697 0.25397706031799316 0.0
1.398239254951477 0.2614254057407379 0.0
3.201760768890381 0.7385746240615845 0.0
3.8017609119415283 0.7385746240615845 0.0
4.39177942276001 0.7466779351234436 0.0
0.25301694869995117 0.7458874583244324 0.0
2.7258167266845703 0.7600342631340027 0.0
0.84163498878479 0.2263137847185135 0.0
0.22429518401622772 0.22429518401622772 0.0
2.7605957984924316 0.22504857182502747 0.0
1.8330284357070923 0.2150011658668518 0.0
0.2192869633436203 0.5323538780212402 0.0
4.7908525466918945 0.5038931369781494 0.0
2.466000556945801 0.5376454591751099 0.0
3.7061264514923096 0.17723728716373444 0.0
3.3929696083068848 0.20266839861869812 0.0
1.4905184507369995 0.7937026619911194 0.0
1.2104878425598145 0.20361483097076416 0.0
3.9895122051239014 0.7963851690292358 0.0
3.389512300491333 0.7963851690292358 0.0
0.5652223825454712 0.5070380568504333 0.0
0.44509074091911316 0.19716571271419525 0.0
2.1318352222442627 0.5042122602462769 0.0
1.548349142074585 0.4954715371131897 0.0
3.050636053085327 0.5004673004150391 0.0
0.9511125087738037 0.498258113861084 0.0
3.651650905609131 0.5045284628868103 0.0
4.248488903045654 0.4980509281158447 0.0
1.1537858247756958 0.49593159556388855 0.0
4.050199031829834 0.49993085861206055 0.0
3.464722156524658 0.509624183177948 0.0
1.749653697013855 0.5001751780509949 0.0
2.851828098297119 0.5057260394096375 0.0
2.359710216522217 0.1888567954301834 0.0
2.0499017238616943 0.8199846148490906 0.0
0.6430503129959106 0.8181284070014954 0.0
4.560274600982666 0.1724673956632614 0.0
4.55863094329834 0.8299665451049805 0.0
2.321284055709839 0.8242537379264832 0.0
4.815218925476074 0.8345447778701782 0.0
4.837246894836426 0.16590170562267303 0.0
0.9682294130325317 0.8331464529037476 0.0
1.730908751487732 0.827606201171875 0.0
4.220076560974121 0.17516615986824036 0.0
3.02066969871521 0.18326662480831146 0.0
1.5634372234344482 0.17044226825237274 0.0
3.035303831100464 0.8294908404350281 0.0
3.627507209777832 0.8360387086868286 0.0
4.2312469482421875 0.8315803408622742 0.0
4.618130683898926 0.5361976027488708 0.0
0.40311703085899353 0.8369210362434387 0.0
1.1473191976547241 0.8458209037780762 0.0
4.052680969238281 0.15417908132076263 0.0
2.020958423614502 0.6394158005714417 0.0
0.662188708782196 0.6447370648384094 0.0
4.5115838050842285 0.3538685142993927 0.0
1.0221220254898071 0.15309639275074005 0.0
0.3837882876396179 0.5515117049217224 0.0
3.548090934753418 0.15800617635250092 0.0
1.4348299503326416 0.6465393304824829 0.0
3.765170097351074 0.3534606993198395 0.0
3.3348300457000732 0.3534606993198395 0.0
1.2546738386154175 0.36384353041648865 0.0
3.945326089859009 0.636156439781189 0.0
3.3412928581237793 0.637225866317749 0.0
2.1904795169830322 0.17066854238510132 0.0
0.16392111778259277 0.38331863284111023 0.0
2.87723445892334 0.8265392184257507 0.0
4.8459792137146 0.6499902606010437 0.0
4.845625400543213 0.34837812185287476 0.0
2.771622896194458 0.38129922747612 0.0
4.5222978591918945 0.6578375697135925 0.0
2.604464530944824 0.8240283727645874 0.0
1.8544400930404663 0.3751189708709717 0.0
0.8566747903823853 0.38255012035369873 0.0
2.2932615280151367 0.5369129776954651 0.0
2.620572805404663 0.6496497392654419 0.0
0.7172287106513977 0.1490369737148285 0.0
0.1410960853099823 0.8303417563438416 0.0
1.7142322063446045 0.142862930893898 0.0
2.6314175128936768 0.14492936432361603 0.0
1.9832650423049927 0.1408119648694992 0.0
2.445650577545166 0.370038241147995 0.0
2.885042667388916 0.1455758661031723 0.0
0.13937503099441528 0.6546638011932373 0.0
0.9110832810401917 0.6349053978919983 0.0
3.088575839996338 0.3613528311252594 0.0
4.296638011932373 0.3563385307788849 0.0
1.1930090188980103 0.6355591416358948 0.0
1.788455843925476 0.6387236714363098 0.0
4.006990909576416 0.3644408583641052 0.0
1.4459187984466553 0.39242905378341675 0.0
4.354081153869629 0.6075709462165833 0.0
3.7540812492370605 0.6075709462165833 0.0
3.1591691970825195 0.6018876433372498 0.0
2.7615907192230225 0.6205627918243408 0.0
2.36276912689209 0.6735464930534363 0.0
1.3681535720825195 0.8630191683769226 0.0
3.8318464756011963 0.1369808316230774 0.0
3.275517463684082 0.10712132602930069 0.0
0.5630941987037659 0.12814241647720337 0.0
1.3237862586975098 0.10638008266687393 0.0
3.2733232975006104 0.8705052733421326 0.0
3.8733232021331787 0.8705052733421326 0.0
2.0396511554718018 0.38928428292274475 0.0
2.2168734073638916 0.8508136868476868 0.0
0.5163488388061523 0.3409615159034729 0.0
0.6547463536262512 0.3955095112323761 0.0
1.9480526447296143 0.8710126876831055 0.0
4.689375877380371 0.13700176775455475 0.0
4.698264122009277 0.8675068616867065 0.0
0.7578787803649902 0.8698469996452332 0.0
2.479548454284668 0.13692785799503326 0.0
2.4562506675720215 0.8735422492027283 0.0
2.171211004257202 0.3573116958141327 0.0
3.5117530822753906 0.853193998336792 0.0
4.107914924621582 0.8658969402313232 0.0
2.640726327896118 0.354434996843338 0.0
4.346996307373047 0.1279495507478714 0.0
0.3128283619880676 0.11246757209300995 0.0
0.136248379945755 0.12152919173240662 0.0
4.453908443450928 0.8629162907600403 0.0
1.6064813137054443 0.8679171800613403 0.0
0.3380795121192932 0.6626779437065125 0.0
0.5102446675300598 0.875635027885437 0.0
0.7425088882446289 0.2989330589771271 0.0
3.1349449157714844 0.10448489338159561 0.0
1.3287748098373413 0.6181886196136475 0.0
3.871795415878296 0.38215625286102295 0.0
3.229135036468506 0.3810797333717346 0.0
0.28971707820892334 0.8759857416152954 0.0
0.9214505553245544 0.11992674320936203 0.0
1.9219478368759155 0.6237660050392151 0.0
1.530794620513916 0.29603153467178345 0.0
3.072223663330078 0.7044162750244141 0.0
3.6722235679626465 0.7044162750244141 0.0
[...]
POINT_DATA 715
SCALARS Psi double
LOOKUP_TABLE default
0.0
0.0
1.0
1.0
1.0
1.0
1.0
1.0
1.0
1.0
1.0
1.0
1.0
1.0
1.0
1.0
1.0
1.0
1.0
1.0
1.0
1.0
1.0
1.0
1.0
1.0
1.0
1.0
1.0
1.0
1.0
1.0
1.0
1.0
1.0
1.0
1.0
1.0
1.0
1.0
1.0
1.0
1.0
1.0
1.0
1.0
1.0
1.0
1.0
1.0
1.0
1.0
1.0
0.918501358596935
0.8630979958336419
0.761208177109431
0.6271366362673648
0.47412933292543863
0.31950560018495705
0.18178432813008352
0.07634243266814304
0.02034968140154829
0.0
0.0
0.0
0.0
0.0
0.0
0.0
0.0
0.0
0.0
0.0
0.0
0.0
0.0
0.0
0.0
0.0
0.0
0.0
0.0
0.0
0.0
0.0
0.0
0.0
0.0
0.0
0.0
0.0
0.0
0.0
0.0
0.0
0.0
0.0
0.0
0.0
0.0
0.0
0.0
0.0
0.0
-0.0
0.0
0.0
0.0
0.0
0.0
0.0
0.027344208817944554
0.10768168756310745
0.20920783056823242
0.3108420585142902
0.412425841536101
0.5107784734724197
0.6025991412430429
0.6784167709122871
0.6416243412776705
0.5298136333553827
0.541387951514
0.5010662431247856
0.4943274092355473
0.46852572788907615
0.4698810867769401
0.5125517959385983
0.32029714210314086
0.3144743044479104
0.7730287915632896
0.7597690483509852
0.23172843473835344
0.2254879794993337
0.24970517676987017
0.2307309437434863
0.2556555797812035
0.7892972315754853
0.7850876713839023
0.782477507126699
0.7955466803436458
0.75970899233071
0.7816764621319754
0.18363657835341068
0.8528069048110912
0.15672505379348173
0.1493448869515294
0.14476546457811337
0.8813348468454686
0.8742654608837553
0.8724665760582698
0.09482345006234216
0.12542992938484498
0.124962619352441
0.13744716911735583
0.865479756890692
0.858908669608844
0.8648353901305741
0.7933947341300301
0.898744729335009
0.11063564713900649
0.11125238616529877
0.09941147622566873
0.08513468624269055
0.46449988724161784
0.48262495823061463
0.5747895599837279
0.04085196420105845
0.06345910716331622
0.9267827083392808
0.07037460190196622
0.9230577028437781
0.9238557720757116
0.49524846287766366
0.07113594665139633
0.5166607535220223
0.49935852947749415
0.5063506661829777
0.5095340251589782
0.4989869303172507
0.4845135926925743
0.5061584528248138
0.48959709495178344
0.5093634455135937
0.5060689051312338
0.5202021296506203
0.059652377711542554
0.9525194628185023
0.9589680796337171
0.03864234445149359
0.9519345212729781
0.9589412495368135
0.9404180925120249
0.030857323662598156
0.9638374254862488
0.9549295132120652
0.041737106624369684
0.053444012179728155
0.04185310894946635
0.9644676481558059
0.9599963195728237
0.9565779039448158
0.5402913720657156
0.9786233880390414
0.9706221894547352
0.03074027878839162
0.7312981492974497
0.7342108588808973
0.24996167639327044
0.036844458959443945
0.5291488285551346
0.029362683833696182
0.743071088768277
0.2541277018482131
0.25783100829756467
0.2883562513406151
0.7114366071065868
0.7188067169274441
0.046114680894002426
0.29475864588943795
0.9638774951361962
0.7109345622955732
0.2363829460883723
0.31691994801594964
0.738583744790209
0.9594517783132441
0.3029030341914702
0.32240025875749595
0.5721225834404958
0.7531055093586968
0.037204111372518625
0.8225624487396664
0.026358617951561452
0.028378930919095248
0.02599185961464503
0.3004010240150695
0.026991684139174427
0.5837487065399585
0.7308951281824044
0.27809831471849833
0.25688682089854986
0.7307640619974083
0.7276466184055145
0.27295213019096604
0.3310292634033098
0.6626753389394628
0.6674712483293356
0.6696142475954638
0.7078147797510943
0.7850992089139887
0.9786458691360428
0.01800465700925798
0.0016215611439975121
0.021241806256644274
0.0009166251035516777
0.9808658912002095
0.9817568197569392
0.3278985996103172
0.9758405361057951
0.2494995372506975
0.33433299551960416
0.9850588896997381
0.02055230170407987
0.9780989007077113
0.9849232274093275
0.024048998087384598
0.9840920875542941
0.2789865522431465
0.968694968441595
0.9794479863572795
0.2765092281778472
0.005848253739481721
0.006015479059533744
0.02258764879820931
0.976679821426413
0.9804608570167046
0.694107710868268
0.992191387960161
0.19993360338347996
0.0029086724691348436
0.7013615491898822
0.2998647587539325
0.3044864201949393
1.018759519472009
0.021797877365590836
0.7055072255869077
0.18409788343105538
0.8261442733074147
0.8131149049130729
0.8102786375697779
1.0062405162984354
0.6888029951376378
0.004120887030040115
0.9946737932470466
0.9943299647405114
0.15501226928290934
0.33036658799826407
0.1873838457000297
0.9959709300231946
0.003628758245278687
0.8664554243021763
0.29641560527748284
0.12785726906768952
0.34087312283781507
0.01195380856492399
0.16197864016541397
0.9903984514187165
0.9901485482173636
0.13052224743883648
0.19410373269508743
-0.0017603074842480952
0.4459896356387971
-0.003749506315544346
0.4047215985078379
0.19747307998812874
-0.004011134404530542
0.0004845405318794888
0.41139141931250894
0.43002966342406235
0.4139159294381001
0.5914665164766149
0.586983105483117
0.003086488551338428
0.5531269649423101
0.0016174438543540186
0.6946413179944095
0.1336388367779713
0.6020504119360363
1.001376002428077
0.7998321632048045
0.17434187536374268
0.7980920166018641
0.1843386807674602
0.20313761028490804
0.8108122549453748
0.9985561767189001
0.0014719640731678837
0.13434933948144406
0.8619956499534805
0.1352042121433129
0.33082091944878356
0.6168895659954131
0.8237583091504921
0.11306977206670801
0.4088616260997867
0.4168261775752224
0.6096649151829532
0.5940810173588349
0.589011749207254
0.02027900418152408
0.6538371297982694
0.13909763779934434
0.861781917382704
0.8572618137486099
0.5934704177852592
0.40907538922271813
0.4239380696596511
0.0035424453106824368
0.5866834881395827
0.8665639321660775
0.13760015248517513
1.0067824054940033
0.20136383629378277
0.5740714785543902
0.6577246968560129
0.409176299912328
0.8596142677447449
0.5811145238022076
0.9994899989933899
0.4556642244167506
0.9879628818797667
0.9871253525214637
0.8918808660513787
0.8671687730445282
0.9579945084360262
0.006722928558309009
0.423855118756256
0.7060206621127624
0.5760879106884409
0.6805153038405247
0.37368580496218246
0.10717035023783716
-0.00138423765677474
0.4411516721730522
0.21139703603110427
0.8375860014759668
0.5616007031441509
0.44062563020192136
0.44574532852171006
0.8511758114691057
0.8760304944217259
0.14012747856547936
0.1262658831432224
0.8642979138007638
0.4147444449498296
0.9991691749510695
0.14227664902250592
0.9016108820951331
0.902633685223738
0.36195957059673983
0.9156296221467249
1.0040178989229724
0.11799192044757635
0.14796705650038888
0.6720573792450262
0.32589600684511416
0.6727076064858185
0.6858243071042953
0.08685181330062999
0.6641129645483794
0.3358917924818777
0.3352645957662114
0.006510361857168866
0.4767507848983607
0.26435710395112355
0.7325226214088559
0.7605031140165261
0.3419494683539256
0.8757927105130224
0.6616656046995111
0.6574577458382798
0.6323436341381643
0.007762666912906228
0.0076637612962203085
0.13711088957934522
0.819537290154733
-0.0033304166723939444
0.9158939085637994
0.9148277029680834
0.8440090733640875
-0.003679038188909555
-0.003139646136930995
0.19005325077828966
0.3452962696656722
-0.00014161220086026863
1.0005362992275042
0.3368990341441202
0.8835827705752598
1.000287645670227
0.8824676059526854
0.12318395550220373
1.006175381101135
-0.001984948472450557
0.10712155718913086
0.9953055254108909
-0.0006393026524611868
0.3184981721067959
0.0005960391021517515
0.6876912292707111
0.0037390614229652237
1.0022609563073608
1.004722224542358
0.11337592057961825
0.4931029592627922
0.15618185779693983
0.9978046537120447
0.8851824282486727
0.9990368876238366
0.33497664880838984
0.9993363718582658
1.0028054328095046
0.13394847726523879
0.08965655657977434
8.298629736416784e-05
0.28598297501541237
0.6490609531026735
0.5854740158432714
0.41239192333171165
0.559807294105645
1.0042129875705295
0.2555134130071258
0.5698438445185268
1.0001611237791252
0.00020472566371230688
-0.001491584977726761
0.1939166531556763
0.4070449390164825
0.5800672863081702
-0.0019525836701308032
0.9180197870377206
1.005662895434739
0.884711063827733
0.09258144993872905
0.9119168027378268
0.9046179656670204
0.634141382460031
0.08124887095680788
0.8928341078570129
-0.0019555855594666775
0.28627394353909597
0.002596075376669345
0.9315423667540595
0.06917058193854939
-0.0016549691030844685
0.5845279022070565
0.5398687935854485
1.004469253751127
1.015462017250329
1.0016937660987577
0.0012886130791529028
0.43454698403619973
0.6790786810892178
0.6857970483745244
0.6764384310728314
0.32305021936991635
0.3191091291346525
0.33340457720519845
0.9433497353459998
1.0353989212941708
0.9973626467744879
0.9945384473216926
0.9630526562522377
0.6846156882977914
0.7560466568644333
-0.002221208512046807
0.06487313980006612
0.7889278598808693
0.7029919819114857
0.23936795603390862
0.8726600318293485
0.0877620302165383
0.07797141046450834
0.7174680078439581
0.6159958059578644
0.4343492203073334
0.9982007121828401
1.0014534946734208
0.768854649162351
0.10029970110629485
0.9299227987739044
0.2180639362915786
0.9516702923744645
0.05588555381995421
1.0004467419306875
0.0021429363473070627
0.37149851429873976
0.6115127704944249
0.36681197462593323
0.8331580013226436
0.0433323574644101
0.5919421258000459
0.37547206718810383
0.833606273287102
-0.0013224610994677967
-0.003750240439785741
0.1894242563226257
0.17816128499374437
0.057145985626504185
0.1081730702873597
0.9456001527628102
0.8388498936669645
0.16357608366348927
0.8005883963403065
0.20836876807599986
0.9068105448536711
0.8991787138626508
0.8989288644842804
-0.004941004920517646
0.9392469436463791
0.35855447639608123
0.22232052601287125
1.0006478085651476
0.17322468085431345
0.5560105303685864
0.7105299460077596
0.6061822109508589
0.6408297548748324
0.04389758038685105
0.9505665662232202
0.9492904852359859
0.05879998964418053
0.6962352506526245
-0.006413468979383941
1.0062821134528388
1.0039950157689155
0.03784297768056822
0.04579421610062337
0.8926135233592224
0.2517751470613402
0.9462857475132064
0.4537458034951897
0.858610831734137
-0.0004004118330989558
0.6404706489511716
0.3565629520663941
0.3665812584645279
1.001374310479667
-0.0022907809159354604
0.5573010342970385
-0.0075448091441813695
0.4133290071536037
0.06776310565943976
-0.0011372781825649686
0.23773985418061613
0.6248113436931974
0.7202801808721091
0.7794020686902046
0.948587726370923
0.04923296689166281
0.24745162514590247
0.18911230463870993
0.769302501745979
1.0047856520455405
0.23301420582660115
0.07151688683183785
0.1900381889166643
0.055889967086000025
0.9272527844822012
0.04823548265315313
0.21204416753340455
0.7812855985747759
0.7851791910630871
0.7959049727240921
0.4076568576095247
1.0058543258753367
0.37357986317197484
0.9155873684414223
-0.0014148240644793254
0.051978454140428905
0.04166658938686969
0.5971737697429844
0.07296762448895143
0.0021011206502722845
0.05987164318437462
0.08155858359945313
0.4189815603341986
0.5598927489357571
0.031217337937652773
0.2007585250429861
-0.0018207738673527692
1.0001928789323449
0.9187840217867602
0.4334896244817103
0.5667849718868302
0.6231141402535468
0.9368394430840344
0.05262929882841033
0.05098027231974275
0.9982133811312678
0.031447467530404984
0.5060276008878315
0.3321781369438734
0.1186112550964046
-0.0010396219277772295
0.7902484569526655
0.9493589459678244
0.14646168798407164
0.12847107149130596
0.8492372663974918
1.0018155382329323
0.04518323975803631
0.941365712775893
0.9405922068600007
0.44687248080769626
0.4427106214940616
1.0009670103451216
0.21423677921761503
0.33464284603287225
0.37720316616595023
0.00023909596416024376
0.9662423358804876
0.967263073704016
0.2444843825621888
0.5930966696547298
0.8268764165582663
0.8297732893136568
0.19031382581636802
0.8284385218752987
0.2392576986463205
0.877488090319858
0.8762385327490575
0.6190478614652949
0.8917221094005141
0.615886670011342
0.05318950246731268
0.9501262939267424
0.39442727945658795
0.6214335360000621
0.37825771391703217
-0.00772310153608736
0.3125590635028369
0.05678579563630506
-0.0007182563442687107
0.5652162028031567
0.1179601614003656
0.22080478930597874
0.08608303817827608
0.7999999231357856
0.872664695212828
0.975057356901489
0.5828090632767472
0.0032099586121806184
0.4082986674643098
0.07777500582819659
0.9992983150715675
1.0003602712791857
-0.0011202299576416228
0.05791008872295674
0.9438807175510278
0.000380143570074407
-0.004798357924133561
0.2376210154306905
0.764440774432885
0.43677635532705344
1.0030582827213494
0.23125746897313842
0.8158701271708663
0.20034982208903668
0.8045934588015186
0.19461115859301642
0.9787334350538828
0.0017288704169907839
0.41451645653182595
1.000854142974833
0.958214628034739
0.04478361651076536

SCALARS Omega double
LOOKUP_TABLE default
-7.676174120566913
-1.2140034114911755
8.532423605431266
15.920757254093953
36.515810703299394
-6.478026945957052
2.42563308338553
-4.462662634607466
-0.4238861624654386
1.9277338559138606
0.05308729916782172
-0.6363145887528425
0.46121282531667296
1.134295451377385
0.15485793070920248
0.8302396512505311
0.48571962220194154
0.8016859189989771
1.602244436319872
-0.11716461758671701
1.4674508686479997
1.2838530302748583
-0.5062703336412949
0.49895020630458226
1.074016620684003
1.0473715608063514
0.7314801145671304
0.21504799288424176
0.4412648362550039
1.410522296770237
1.1073020307893382
0.12359764971603601
1.3436315576256637
0.8545413955562289
0.42389063368301133
1.164983070410801
0.7672711377555914
0.38790686660139884
1.3646204033891596
0.693324803383437
1.4367972104407136
0.7287306786619716
0.4267798801346445
0.3688988863984657
0.9823541348636068
0.7610816471476707
2.245231623280321
0.4843667942551235
-0.5276475704000987
2.2635390515167675
0.9251472252451501
1.9577196114158046
9.649203631185431
-7.653988287636193
0.4517304788906349
2.588247082230799
1.4832903309483065
-0.06550952638281682
-0.8751352771174903
-2.3651216191816147
-3.0779497417853645
-1.7478043995966543
-0.3033582925638293
-0.7459355895919118
-1.1272794661210597
-0.08408180068431319
-0.7581736318701373
-0.3747412399040907
-1.093077597793757
-0.8424633692372215
-0.3039564954714271
-0.7326201285918623
-0.454574315498686
0.14988320322513157
-1.8129883856397464
-0.6378248081592305
0.44041379951568616
-1.524536227549381
-0.5917508438535571
-0.2685204825345793
-1.1484996393687557
-0.8275447611483189
-0.43081597193234483
-1.155756613197561
-0.9381487227836528
-1.510051514524694
-0.12327946780657702
-0.5617171787058163
-1.052311086414488
-1.1704430884797363
-0.7750147106333117
0.7494476047773756
-1.4684148801011798
-1.2850757470805974
0.2457369271912947
-0.8816909936914444
-1.1388190143883827
-0.13549462885349753
-0.5403347592689051
-1.5247181599964013
-1.5263740758422861
-0.3483471677590012
-1.9003701536026703
-0.4802844092689503
-2.0615095180525773
-0.49875495542978365
-0.14166124944206943
-2.0684629735012443
-1.9114366282192379
-0.8187438201452483
0.751035286114685
-4.593038760564486
2.6457759046857343
0.3120508838962042
-0.025083328001283083
-0.8569322851048273
1.649817149745044
-5.887915554996651
-2.3380107280079954
-42.61132025743884
-0.513520334101777
0.4524856742189545
0.04903329511789444
-0.09338383519745146
-0.25140525522907736
-0.23782628054309055
0.17545266547194838
-0.37690310180047976
-1.5262445031644942
3.0175233533283286
2.331467901457482
-2.487308509081398
-2.5803046188868195
-2.2355447307370757
-2.465672381269408
-1.9476955588398566
2.765809070473002
2.6813579692166667
2.5654467411415203
2.816549035007919
2.3110065114568363
2.7101911544807966
-3.0458091072227775
3.76556089321464
-2.5928573310775147
-3.7832539447074702
-3.7889393243522087
5.223441880283095
4.136950569511488
3.9268919547707646
-4.615134048878668
-4.115084021985254
-4.123318134638081
-3.9010048218527986
4.05318267598711
3.7932316109791016
4.048026448114251
1.9629802064030901
4.505560889314648
-3.975149121235124
-1.7024815784950955
-4.558200448014439
-4.916332722198853
-1.4204501699170782
-0.1417317233051544
0.6762448033274843
-6.376702616999798
-5.469770874298246
4.972606868556658
-5.151428173088617
5.209187230286667
5.0258585693425095
-1.2680178277930338
-4.8986157987179615
0.1733260566996612
0.10940516117605582
0.07706642328849468
-0.15930944059421653
-0.015845426454884577
-0.16155104778867815
0.08004203924875089
-0.10364853974014233
0.06108632025696505
0.11461499296276027
0.20689726521044924
-5.678428196796277
5.495387634656975
7.340940769021169
-5.948985897958504
5.969157994172674
5.988655234380646
6.155027295887673
-5.633182592795947
5.745324921548584
5.410368641727105
-5.69949271904152
-5.532433646561108
-6.457311160654299
6.665614069046786
5.826333971098889
5.891631886086881
0.2388948505946332
13.250947365496701
5.7855237265152315
-5.722420474642238
2.051306781755913
2.261681788774223
-2.1553120572087807
-5.49378474525674
-2.3417934547997143
-6.063653945747148
2.2687990378838636
-2.201768508775074
-2.216302652037734
-1.68456191263351
1.725256265456247
1.9415242543823374
-5.677701142190247
0.08786393188369833
6.198418570747436
1.5729621460983811
-1.9348987904006192
-1.4904168201080072
2.0207801226534015
5.713482170043794
-1.6343070762750782
-1.2476394714184693
0.6199634072431705
2.3480923990572014
-6.121743235189775
-1.874446781154662
-6.3189547588512225
-6.324081157457518
-6.539641929913103
-1.6418959408680522
-6.39398095623257
-4.515330312877392
2.450477287877522
-1.9872955681802609
-2.160922246230829
2.364121380713424
2.0106442407876073
-1.9828272291607962
-1.2953620373907018
1.2499734292503333
1.377053830119268
1.440717478378037
1.861895699351028
2.802630574324542
6.0013760939018015
-6.721617947928496
-7.703418652574077
-6.637768690534011
-8.545792188697028
6.539851495749913
7.164915409254075
-1.3700138987619481
6.835235882624797
-0.9174704223154111
-1.0104549644967296
6.849002886695987
-5.674499426136241
8.220096901153061
6.027894597175732
-6.435950098086116
5.72383840988948
-1.875535178227651
5.834371003353885
7.3144933915759545
-1.8733898311483996
-8.73536763053575
-10.845301733035331
-8.803745564465515
6.83777870074932
6.087081049652368
-1.0397268300098694
7.10568164745736
-2.1702295917026904
-8.104852357039999
1.9453793395607348
-1.7073965952905128
-1.7512286036166393
23.71404648120982
-6.258098201009286
1.819886091685813
-3.1586183123838114
3.349069865447279
3.0234328432552435
2.970920434482226
7.734857651379944
1.6169578906957283
-8.458182437560865
8.790659011412567
7.139916323198984
-1.4503147495741904
-1.3352785693675624
-3.0602922489965123
6.992244599431426
-6.9582563031863955
3.922457777063912
-1.7258913980622694
-3.739029440975431
-0.44508731321606215
-6.604879682275493
3.2827493243329426
7.831695070809407
5.598275919621047
-3.98358126336583
-2.99674158046441
-10.099046788304056
-0.33179070345947076
-8.527507436336997
-1.4064432114137793
-2.8730984691895416
-8.865920682047365
-8.04249937541646
-0.7111084179561479
-0.5081341768910481
-0.7110003161430284
0.7433339034147297
0.7561683465594211
-7.626015866474169
1.2861748841908647
-9.536152311770655
1.7838383924486862
-3.9008376757491674
-4.131327035233869
10.036984273612152
2.8536648723094604
-2.9918883496370667
2.914720343645482
-3.142178347434871
-2.878623467898771
2.9639074430402443
6.839933252569681
-6.709191199627112
-3.9550547891078467
3.820821768515957
-3.9279548383021643
-1.2333126933317344
0.8622940306706255
5.336639509097184
-8.881831921810292
-0.6146282912243161
-0.6704492294460251
0.9083391359408463
0.763437641466036
0.6283677645718743
-6.725780315864777
-8.020329402182382
-3.748948023861195
3.919915270741005
3.7395952794753686
0.8924015785823326
-0.7184720210334599
-0.5974278912128967
-9.367076041977745
0.7150744437852828
4.250867970341452
-3.7902868644489147
9.72910043809312
-2.8097360313296487
-0.4445188171473208
0.19983502353926635
-0.7127344898690184
3.7705352436988933
0.23518037227333663
8.880201371914174
-0.2696315141960327
6.96540036678244
6.448232404030411
4.310862797876406
5.501566505604413
3.1319665339118954
-8.175324157637617
-1.2911140278872646
1.7813399588424519
0.6291623672877009
1.5397506513584764
-1.5553488805143434
-4.4311982038650255
-9.993487857347954
-0.4946382716742148
0.7364393314142355
3.42344120896627
0.6011111457012546
-0.4798039358008288
-0.4419595355107811
5.482521445281875
4.886746193262119
-3.8532806241714863
-3.89462308589238