# vtk DataFile Version 1.0
2D Simulation C++
ASCII
DATASET UNSTRUCTURED_GRID
FIELD FieldData 1
NODES 1 2 int
715 1308

POINTS 715 double
0.0 0.0 0.0
5.0 0.0 0.0
5.0 1.0 0.0
0.0 1.0 0.0
0.10000000149011612 1.0 0.0
0.20000000298023224 1.0 0.0
0.30000001192092896 1.0 0.0
0.4000000059604645 1.0 0.0
0.5 1.0 0.0
0.6000000238418579 1.0 0.0
0.699999988079071 1.0 0.0
0.800000011920929 1.0 0.0
0.8999999761581421 1.0 0.0
1.0 1.0 0.0
1.100000023841858 1.0 0.0
1.2000000476837158 1.0 0.0
1.2999999523162842 1.0 0.0
1.399999976158142 1.0 0.0
1.5 1.0 0.0
1.600000023841858 1.0 0.0
1.7000000476837158 1.0 0.0
1.7999999523162842 1.0 0.0
1.899999976158142 1.0 0.0
2.0 1.0 0.0
2.0999999046325684 1.0 0.0
2.200000047683716 1.0 0.0
2.299999952316284 1.0 0.0
2.4000000953674316 1.0 0.0
2.5 1.0 0.0
2.5999999046325684 1.0 0.0
2.700000047683716 1.0 0.0
2.799999952316284 1.0 0.0
2.9000000953674316 1.0 0.0
3.0 1.0 0.0
3.0999999046325684 1.0 0.0
3.200000047683716 1.0 0.0
3.299999952316284 1.0 0.0
3.4000000953674316 1.0 0.0
3.5 1.0 0.0
3.5999999046325684 1.0 0.0
3.700000047683716 1.0 0.0
3.799999952316284 1.0 0.0
3.9000000953674316 1.0 0.0
4.0 1.0 0.0
4.099999904632568 1.0 0.0
4.199999809265137 1.0 0.0
4.300000190734863 1.0 0.0
4.400000095367432 1.0 0.0
4.5 1.0 0.0
4.599999904632568 1.0 0.0
4.699999809265137 1.0 0.0
4.800000190734863 1.0 0.0
4.900000095367432 1.0 0.0
5.0 0.8999999761581421 0.0
5.0 0.800000011920929 0.0
5.0 0.699999988079071 0.0
5.0 0.6000000238418579 0.0
5.0 0.5 0.0
5.0 0.4000000059604645 0.0
5.0 0.30000001192092896 0.0
5.0 0.20000000298023224 0.0
5.0 0.10000000149011612 0.0
4.900000095367432 0.0 0.0
4.800000190734863 0.0 0.0
4.699999809265137 0.0 0.0
4.599999904632568 0.0 0.0
4.5 0.0 0.0
4.400000095367432 0.0 0.0
4.300000190734863 0.0 0.0
4.199999809265137 0.0 0.0
4.099999904632568 0.0 0.0
4.0 0.0 0.0
3.9000000953674316 0.0 0.0
3.799999952316284 0.0 0.0
3.700000047683716 0.0 0.0
3.5999999046325684 0.0 0.0
3.5 0.0 0.0
3.4000000953674316 0.0 0.0
3.299999952316284 0.0 0.0
3.200000047683716 0.0 0.0
3.0999999046325684 0.0 0.0
3.0 0.0 0.0
2.9000000953674316 0.0 0.0
2.799999952316284 0.0 0.0
2.700000047683716 0.0 0.0
2.5999999046325684 0.0 0.0
2.5 0.0 0.0
2.4000000953674316 0.0 0.0
2.299999952316284 0.0 0.0
2.200000047683716 0.0 0.0
2.0999999046325684 0.0 0.0
2.0 0.0 0.0
1.899999976158142 0.0 0.0
1.7999999523162842 0.0 0.0
1.7000000476837158 0.0 0.0
1.600000023841858 0.0 0.0
1.5 0.0 0.0
1.399999976158142 0.0 0.0
1.2999999523162842 0.0 0.0
1.2000000476837158 0.0 0.0
1.100000023841858 0.0 0.0
1.0 0.0 0.0
0.8999999761581421 0.0 0.0
0.800000011920929 0.0 0.0
0.699999988079071 0.0 0.0
0.6000000238418579 0.0 0.0
0.5 0.0 0.0
0.4000000059604645 0.0 0.0
0.30000001192092896 0.0 0.0
0.20000000298023224 0.0 0.0
0.10000000149011612 0.0 0.0
0.0 0.10000000149011612 0.0
0.0 0.20000000298023224 0.0
0.0 0.30000001192092896 0.0
0.0 0.4000000059604645 0.0
0.0 0.5 0.0
0.0 0.6000000238418579 0.0
0.0 0.699999988079071 0.0
0.0 0.800000011920929 0.0
0.0 0.8999999761581421 0.0
0.7496038675308228 0.5164291858673096 0.0
1.3451675176620483 0.5190238952636719 0.0
1.9462687969207764 0.4963642954826355 0.0
4.456614971160889 0.5060901641845703 0.0
3.864220380783081 0.4866538345813751 0.0
3.249823808670044 0.482722669839859 0.0
2.6500000953674316 0.5 0.0
0.3810288906097412 0.399004191160202 0.0
2.308779239654541 0.3797946870326996 0.0
1.0499999523162842 0.6625000238418579 0.0
1.644740104675293 0.6598879098892212 0.0
4.150000095367432 0.3375000059604645 0.0
3.555316209793091 0.3343118131160736 0.0
2.9446933269500732 0.3401789665222168 0.0
1.6342840194702148 0.3290160894393921 0.0
1.0591840744018555 0.33908534049987793 0.0
2.9654481410980225 0.6753292679786682 0.0
3.5534629821777344 0.6835107207298279 0.0
4.153462886810303 0.6835107207298279 0.0
2.2139804363250732 0.6805098056793213 0.0
0.4914395809173584 0.6739721894264221 0.0
4.691666603088379 0.6916666626930237 0.0
4.691666603088379 0.3083333373069763 0.0
2.4872219562530518 0.7236665487289429 0.0
0.6240421533584595 0.2677222192287445 0.0
2.0697431564331055 0.2657754421234131 0.0
2.5389034748077393 0.26082900166511536 0.0
0.8147311806678772 0.7450684309005737 0.0
1.2897310256958008 0.743314266204834 0.0
1.8853894472122192 0.7450258731842041 0.0
4.382374286651611 0.23655959963798523 0.0
3.910269021987915 0.25668570399284363 0.0
3.1838724613189697 0.25397706031799316 0.0
1.398239254951477 0.2614254057407379 0.0
3.201760768890381 0.7385746240615845 0.0
3.8017609119415283 0.7385746240615845 0.0
4.39177942276001 0.7466779351234436 0.0
0.25301694869995117 0.7458874583244324 0.0
2.7258167266845703 0.7600342631340027 0.0
0.84163498878479 0.2263137847185135 0.0
0.22429518401622772 0.22429518401622772 0.0
2.7605957984924316 0.22504857182502747 0.0
1.8330284357070923 0.2150011658668518 0.0
0.2192869633436203 0.5323538780212402 0.0
4.7908525466918945 0.5038931369781494 0.0
2.466000556945801 0.5376454591751099 0.0
3.7061264514923096 0.17723728716373444 0.0
3.3929696083068848 0.20266839861869812 0.0
1.4905184507369995 0.7937026619911194 0.0
1.2104878425598145 0.20361483097076416 0.0
3.9895122051239014 0.7963851690292358 0.0
3.389512300491333 0.7963851690292358 0.0
0.5652223825454712 0.5070380568504333 0.0
0.44509074091911316 0.19716571271419525 0.0
2.1318352222442627 0.5042122602462769 0.0
1.548349142074585 0.4954715371131897 0.0
3.050636053085327 0.5004673004150391 0.0
0.9511125087738037 0.498258113861084 0.0
3.651650905609131 0.5045284628868103 0.0
4.248488903045654 0.4980509281158447 0.0
1.1537858247756958 0.49593159556388855 0.0
4.050199031829834 0.49993085861206055 0.0
3.464722156524658 0.509624183177948 0.0
1.749653697013855 0.5001751780509949 0.0
2.851828098297119 0.5057260394096375 0.0
2.359710216522217 0.1888567954301834 0.0
2.0499017238616943 0.8199846148490906 0.0
0.6430503129959106 0.8181284070014954 0.0
4.560274600982666 0.1724673956632614 0.0
4.55863094329834 0.8299665451049805 0.0
2.321284055709839 0.8242537379264832 0.0
4.815218925476074 0.8345447778701782 0.0
4.837246894836426 0.16590170562267303 0.0
0.9682294130325317 0.8331464529037476 0.0
1.730908751487732 0.827606201171875 0.0
4.220076560974121 0.17516615986824036 0.0
3.02066969871521 0.18326662480831146 0.0
1.5634372234344482 0.17044226825237274 0.0
3.035303831100464 0.8294908404350281 0.0
3.627507209777832 0.8360387086868286 0.0
4.2312469482421875 0.8315803408622742 0.0
4.618130683898926 0.5361976027488708 0.0
0.40311703085899353 0.8369210362434387 0.0
1.1473191976547241 0.8458209037780762 0.0
4.052680969238281 0.15417908132076263 0.0
2.020958423614502 0.6394158005714417 0.0
0.662188708782196 0.6447370648384094 0.0
4.5115838050842285 0.3538685142993927 0.0
1.0221220254898071 0.15309639275074005 0.0
0.3837882876396179 0.5515117049217224 0.0
3.548090934753418 0.15800617635250092 0.0
1.4348299503326416 0.6465393304824829 0.0
3.765170097351074 0.3534606993198395 0.0
3.3348300457000732 0.3534606993198395 0.0
1.2546738386154175 0.36384353041648865 0.0
3.945326089859009 0.636156439781189 0.0
3.3412928581237793 0.637225866317749 0.0
2.1904795169830322 0.17066854238510132 0.0
0.16392111778259277 0.38331863284111023 0.0
2.87723445892334 0.8265392184257507 0.0
4.8459792137146 0.6499902606010437 0.0
4.845625400543213 0.34837812185287476 0.0
2.771622896194458 0.38129922747612 0.0
4.5222978591918945 0.6578375697135925 0.0
2.604464530944824 0.8240283727645874 0.0
1.8544400930404663 0.3751189708709717 0.0
0.8566747903823853 0.38255012035369873 0.0
2.2932615280151367 0.5369129776954651 0.0
2.620572805404663 0.6496497392654419 0.0
0.7172287106513977 0.1490369737148285 0.0
0.1410960853099823 0.8303417563438416 0.0
1.7142322063446045 0.142862930893898 0.0
2.6314175128936768 0.14492936432361603 0.0
1.9832650423049927 0.1408119648694992 0.0
2.445650577545166 0.370038241147995 0.0
2.885042667388916 0.1455758661031723 0.0
0.13937503099441528 0.6546638011932373 0.0
0.9110832810401917 0.6349053978919983 0.0
3.088575839996338 0.3613528311252594 0.0
4.296638011932373 0.3563385307788849 0.0
1.1930090188980103 0.6355591416358948 0.0
1.788455843925476 0.6387236714363098 0.0
4.006990909576416 0.3644408583641052 0.0
1.4459187984466553 0.39242905378341675 0.0
4.354081153869629 0.6075709462165833 0.0
3.7540812492370605 0.6075709462165833 0.0
3.1591691970825195 0.6018876433372498 0.0
2.7615907192230225 0.6205627918243408 0.0
2.36276912689209 0.6735464930534363 0.0
1.3681535720825195 0.8630191683769226 0.0
3.8318464756011963 0.1369808316230774 0.0
3.275517463684082 0.10712132602930069 0.0
0.5630941987037659 0.12814241647720337 0.0
1.3237862586975098 0.10638008266687393 0.0
3.2733232975006104 0.8705052733421326 0.0
3.8733232021331787 0.8705052733421326 0.0
2.0396511554718018 0.38928428292274475 0.0
2.2168734073638916 0.8508136868476868 0.0
0.5163488388061523 0.3409615159034729 0.0
0.6547463536262512 0.3955095112323761 0.0
1.9480526447296143 0.8710126876831055 0.0
4.689375877380371 0.13700176775455475 0.0
4.698264122009277 0.8675068616867065 0.0
0.7578787803649902 0.8698469996452332 0.0
2.479548454284668 0.13692785799503326 0.0
2.4562506675720215 0.8735422492027283 0.0
2.171211004257202 0.3573116958141327 0.0
3.5117530822753906 0.853193998336792 0.0
4.107914924621582 0.8658969402313232 0.0
2.640726327896118 0.354434996843338 0.0
4.346996307373047 0.1279495507478714 0.0
0.3128283619880676 0.11246757209300995 0.0
0.136248379945755 0.12152919173240662 0.0
4.453908443450928 0.8629162907600403 0.0
1.6064813137054443 0.8679171800613403 0.0
0.3380795121192932 0.6626779437065125 0.0
0.5102446675300598 0.875635027885437 0.0
0.7425088882446289 0.2989330589771271 0.0
3.1349449157714844 0.10448489338159561 0.0
1.3287748098373413 0.6181886196136475 0.0
3.871795415878296 0.38215625286102295 0.0
3.229135036468506 0.3810797333717346 0.0
0.28971707820892334 0.8759857416152954 0.0
0.9214505553245544 0.11992674320936203 0.0
1.9219478368759155 0.6237660050392151 0.0
1.530794620513916 0.29603153467178345 0.0
3.072223663330078 0.7044162750244141 0.0
3.6722235679626465 0.7044162750244141 0.0
[...]
POINT_DATA 715
SCALARS Psi double
LOOKUP_TABLE default
0.0
0.0
1.0
1.0
1.0
1.0
1.0
1.0
1.0
1.0
1.0
1.0
1.0
1.0
1.0
1.0
1.0
1.0
1.0
1.0
1.0
1.0
1.0
1.0
1.0
1.0
1.0
1.0
1.0
1.0
1.0
1.0
1.0
1.0
1.0
1.0
1.0
1.0
1.0
1.0
1.0
1.0
1.0
1.0
1.0
1.0
1.0
1.0
1.0
1.0
1.0
1.0
1.0
0.9184535707567937
0.8629424373112222
0.7610174471145651
0.6271067091942155
0.47439517766414974
0.3200309900331722
0.18234682372262
0.07670282838059674
0.02046382268786999
0.0
0.0
0.0
0.0
0.0
0.0
0.0
0.0
0.0
0.0
0.0
0.0
0.0
0.0
0.0
0.0
0.0
0.0
0.0
0.0
0.0
0.0
0.0
0.0
0.0
0.0
0.0
0.0
0.0
0.0
0.0
0.0
0.0
0.0
0.0
0.0
0.0
0.0
0.0
0.0
0.0
0.0
-0.0
0.0
0.0
0.0
0.0
0.0
0.0
0.02734334888771676
0.1076793779166072
0.20920395830999047
0.31083670091707777
0.41241939426656377
0.5107717152651651
0.6025928445571683
0.6784116206803275
0.6416219933946133
0.5298093562108986
0.541126846127489
0.5011162847195764
0.4943854249637828
0.46857745829250125
0.4698091063421656
0.5125573430441922
0.320285196812584
0.3148764791411267
0.7727441936008496
0.7592590995351081
0.2321110413918422
0.22578421325550777
0.24995283168428256
0.23100399711944103
0.2558066066975363
0.7889386677157139
0.7846722622586492
0.7820641427124514
0.7953567282787779
0.7596992229094398
0.7814078492759122
0.1841587871374219
0.8526048736258263
0.15672468748572366
0.14972780358627313
0.14508502237353296
0.8812881807452897
0.8738308158199554
0.8722335040944231
0.09508876986256658
0.12575874728509875
0.12513148179556655
0.13765171826545053
0.8651684720924024
0.8585607921153721
0.864548113195424
0.7933857631669597
0.898547866888302
0.11067267344685677
0.11124897413839076
0.09963435560336979
0.08536763573017556
0.4644897107367844
0.48286967795820546
0.5747669921045769
0.040959183569750424
0.06355471309216398
0.9264653060082966
0.07047096123591091
0.9228188961667546
0.9236293917279946
0.4952400073063749
0.0711311209356491
0.5167643322227656
0.4991745786985225
0.5062338986916228
0.5095092399641855
0.4989407203119886
0.4845367761602123
0.5060555771341884
0.4896069646484368
0.5092569043264562
0.5059708384294442
0.5201106613214622
0.05982671546497962
0.9524521652048727
0.9589662701145746
0.03878330501824946
0.9518184132385968
0.9588980014860004
0.9402916327654386
0.031057431710287197
0.9638072072050342
0.9547867150078726
0.041862823437931185
0.05354277944790136
0.04195233214834712
0.9643788593898407
0.9598775282433057
0.9564435844842681
0.5403288003925788
0.9786139247870482
0.970549744644747
0.030840710345676304
0.7310845111614751
0.7341946860778001
0.25040804234107533
0.036866846544462296
0.5291353122265054
0.029412584812506352
0.7424737664227907
0.25449157995254623
0.25804216349698156
0.28852112273104624
0.7110508333953818
0.7184168910304286
0.046272465842891713
0.29475216603710713
0.9638042033977298
0.7107176554995088
0.237037334816479
0.31717152944428917
0.7382791940952257
0.9593859224745034
0.3032155785220753
0.3224627567773963
0.5721466127328784
0.7528253788132938
0.03720001290258349
0.8225579552684721
0.02643325951546504
0.02846249296237517
0.02608019902048087
0.30077964559360765
0.027048943489857667
0.5837408156159366
0.7307643603406055
0.27828247221514124
0.2572570606648765
0.7303385195811191
0.7272807058251648
0.2733231850098869
0.3311546088635245
0.6623977197011752
0.6671450117412236
0.6692691695155661
0.7075180048895896
0.7849087589605143
0.9785538724317752
0.018055099258831232
0.0016001962324257407
0.021238031089939415
0.0009062326137895931
0.9808140081924988
0.981702478631824
0.32826921299395556
0.975827416169526
0.24949194731501692
0.33434080677905065
0.9850412294583009
0.020626550268874992
0.9780475062491902
0.9849249798680861
0.024114336828450388
0.9840806204674255
0.2794232940269513
0.9686002306559347
0.9793756490680801
0.2768397758248455
0.005858477801818977
0.006015417683456227
0.022586991578912325
0.9766238303669755
0.9803785264402365
0.6940960405060512
0.9921829174363743
0.19996053658252497
0.002896798551189346
0.7008472000850791
0.30020667383781446
0.3046387620912794
1.0187570780167874
0.021799104172635874
0.7052608098581188
0.18434292507905423
0.8258034784013234
0.8127265825836462
0.8099120183500197
1.0062857319926954
0.6887591568000488
0.004130907515089954
0.9946651840706593
0.9943203279206666
0.15500561394445095
0.3308463026674224
0.1877776231094831
0.9959806307577584
0.0036339189750368424
0.8661806076676797
0.29677879086355263
0.12794690835538772
0.3408627768119304
0.011992741838930378
0.16197545847822886
0.990383147070386
0.9901592362934502
0.1308709440190686
0.19442993278344417
-0.001783675892282489
0.4461571318104518
-0.0037685386453273754
0.4047142421304936
0.1977640836817389
-0.0040348102187878696
0.0004565263883948406
0.4115619483711321
0.43006440993107625
0.4140045637293887
0.5913118982190261
0.586656214974459
0.0030838803290629117
0.5532249346225505
0.0016195777753738613
0.6944509683952801
0.13393903533628687
0.6020401899177175
1.001391855125021
0.799425647472053
0.17451542095663242
0.7976868279080199
0.18458724403571636
0.20346093154887698
0.8102543643062333
0.9985938113315876
0.0014649494800975681
0.1346768998297286
0.8614930423141113
0.13538764753405724
0.33091652600258126
0.6168093605851638
0.8234771081621207
0.11364499274524523
0.40889950870496117
0.41686841759078563
0.6094074664800597
0.5938418771933602
0.5888137504114492
0.0202750478695036
0.6538308351732134
0.13929130194635783
0.8614453527648072
0.856895930256086
0.5931608427901804
0.4092577873618528
0.4239445471438232
0.0035333158128831154
0.5865135092168723
0.86622164073224
0.1379589246030964
1.0068160696721198
0.20178027916901678
0.5740622606282383
0.6577141358386003
0.409451299556734
0.8594211533254966
0.5810742210775445
0.9994904104237727
0.4558724748509492
0.9879283618821453
0.9870898603231092
0.891518082320199
0.8671559088855728
0.9579650126952557
0.006782202547128063
0.42384232016293844
0.7056873914217411
0.5760599940353448
0.6803769656598408
0.37420623588527946
0.10736983411980876
-0.0013833972106757533
0.44128464218340757
0.2113902844280205
0.8373972851530596
0.5612681096412572
0.44072136439236503
0.44572809960246335
0.8511680211062891
0.8759175892692169
0.14031887099420476
0.1265809827756841
0.8639916244026703
0.41503780446839533
0.999177959046885
0.1422699696702392
0.9013378266501204
0.9023607642669119
0.362130603446773
0.9154318218991303
1.0040113732791367
0.11832879639451727
0.14839079188361573
0.6717412295950257
0.32604804844348984
0.6723637436759344
0.6854730456929288
0.08705699304801874
0.6636101369970282
0.33613295349430844
0.3354365954291914
0.006510340899427539
0.4767758645470138
0.2645562008474161
0.7321251961785281
0.7601107965314222
0.3421515937558677
0.8755860887122384
0.6613310794205695
0.6571389911310748
0.6321359689571265
0.007770391156539184
0.0076853440912151355
0.13762378021770216
0.8192704877304978
-0.0033543729760419556
0.915884861335573
0.9147261632515228
0.8437362989920115
-0.0037029768196342283
-0.003175804874325296
0.1900442685235941
0.34561482306479113
-0.00016349795839472894
1.0005491184956987
0.33692881388716156
0.8833262613471878
1.0002928214565023
0.8822749028834479
0.12349402094381315
1.0062135472016136
-0.002022142636021064
0.10739560172940114
0.9952928041739775
-0.0006518912218605096
0.3186408481725218
0.0005931138370684775
0.6874689524049131
0.003743366379537141
1.0022824012547487
1.0047442445965173
0.11357745364442959
0.4930958405324082
0.15658710475260476
0.9977953667764862
0.8850250790987343
0.9990649910051154
0.335502325896245
0.9993327772432761
1.0028013273334226
0.13407359854046605
0.08986147893187262
8.484115773082727e-05
0.2864566429021789
0.648960468803363
0.5854621215331883
0.41240262260223637
0.559664448082759
1.004236703398685
0.25550883264835217
0.5697769983393971
1.0001918797792524
0.00019599104076824998
-0.0015052992580709091
0.19400678568665589
0.40703194497385525
0.5799859810084617
-0.0019584886009810553
0.9177962930787736
1.0057032035939286
0.884701423988986
0.09275950655560676
0.9116911616331352
0.9043466410115558
0.6339340285542844
0.08154053740987069
0.8926292861611287
-0.0019684364722580903
0.28664539762943153
0.002598292831613827
0.931297167253668
0.06938649943571161
-0.0016729341513719268
0.5842769986333108
0.5398567635507274
1.004494383854433
1.0154601317520695
1.0017161264165382
0.001288663638057265
0.43464879752020347
0.678908608356439
0.6854801724656856
0.6760362127130957
0.32335458261758315
0.3194363023436142
0.33355701072363625
0.9432606378314424
1.0354015436190744
0.9973602352208802
0.9945230716425614
0.9629921093317834
0.6846041023124811
0.7558319046582506
-0.0022361679009154554
0.06486702634101356
0.7886241764478629
0.7028015018898482
0.24002454216808092
0.8726587820286247
0.08794546404506419
0.07816877898621409
0.7173141456992638
0.6157443507173153
0.43437270074260925
0.9981985967488864
1.0014716933768617
0.7685148370064807
0.100314270489909
0.929832809814776
0.2183877137442457
0.9515730626248053
0.05604211224599274
1.0004520013204476
0.002140149788486814
0.3718391066024604
0.6114705861546703
0.3670380345850472
0.833147438949027
0.0434674668473248
0.5919293356606242
0.37546326910226807
0.8331965419526874
-0.0013346150706328504
-0.003763972068809341
0.18941991924345908
0.17839194381363363
0.05724274559092505
0.10848647580190213
0.9455779521980583
0.8384142315735337
0.16394774996293607
0.8003940537358547
0.20874212331660072
0.9068056888990086
0.8988898691666145
0.8986454103129536
-0.004965519603148894
0.9391142042922788
0.35854936400891146
0.22274587514162889
1.0006541417313937
0.1735736445760212
0.555804213794238
0.7103252286101195
0.6059001449088118
0.6408101391521198
0.04398094874843464
0.9504245048752608
0.9491297858111892
0.0590553179558943
0.6962271408271735
-0.00643300480347047
1.00631246794581
1.004016517903788
0.03789052517187024
0.04610224017597124
0.892466081690352
0.25177464628694035
0.9461649567110207
0.4540123740676778
0.8584472668566511
-0.00040080183194265593
0.6400151670808466
0.35681117520856104
0.3666655363706779
1.001393870542734
-0.002306287022455154
0.5572944041204587
-0.007543809180943196
0.4133188687712243
0.06783803865300643
-0.0011374987123771547
0.23794188423908968
0.624683640986388
0.7202754863597415
0.7790813941575468
0.9483683746777285
0.04939149246740921
0.24789384116335922
0.18949000345313585
0.7692181209066815
1.0048056691008842
0.23302627704736376
0.07175052224979686
0.19044173748816132
0.05605567475289874
0.9269631303107609
0.04837431577699277
0.21227605636647912
0.7809232680160139
0.784775720125008
0.7955299743410381
0.40769908462734306
1.0058477536117114
0.3738687200606217
0.9154408122542679
-0.0014303691866005596
0.052057522592759635
0.04177807939985878
0.596988275467912
0.07319197249158978
0.0021014571134519754
0.05987003491360919
0.08155522129823263
0.4192215047773931
0.5597957177656094
0.031290883006294054
0.20113889056702508
-0.0018206615587846734
1.000198113430039
0.9187696814392297
0.4334347510478414
0.5666210071990492
0.6228083123762465
0.9365557182454962
0.052780389580777735
0.05104931248960657
0.9982129032952833
0.031537515766101656
0.506019029813509
0.3325482139818297
0.11861602276095008
-0.0010506918178749642
0.7900011541733493
0.9493527069160687
0.14666209498136135
0.12876618064070408
0.8487179798135212
1.0018254136106284
0.04525152567809141
0.9411953858631413
0.940407638727129
0.44706407118065006
0.4427135363442438
1.0009774788469856
0.2142911914857334
0.33463706460224957
0.37743337328053295
0.0002302709800231809
0.9661318132980069
0.9671610041769771
0.2444750869142118
0.5928861612409262
0.8264954251658253
0.8294079611459522
0.1905036891282932
0.8281382887140197
0.23970502445822456
0.8771687616922189
0.8759263569500216
0.6189598343633194
0.8914731474053665
0.6156257491029166
0.053352071685310365
0.9500258206327352
0.39447943383081274
0.6211426078744585
0.37848669454130646
-0.007760524031260484
0.31254823618681726
0.05678056408134763
-0.0007352558508591429
0.5650931760108306
0.1181801018653957
0.22092791354162508
0.08608084376455993
0.7999625749491994
0.8724360498234068
0.9749480765168811
0.5825706412134756
0.0032031476419716797
0.40861569654601004
0.07781397184429514
0.9993041274679546
1.0003700561094095
-0.001130399149360903
0.05790692656101744
0.9437371918709205
0.00037984964523972745
-0.004840971091548943
0.23801911118561558
0.763927687020661
0.4367644268891252
1.0030721716287199
0.2318349876765587
0.8156161701887965
0.20055352869295792
0.8040445444969722
0.19499444496419846
0.9787351018721759
0.0017374800162310343
0.4147068373108686
1.0008488317432573
0.9581641016390946
0.04487089848387712

SCALARS Omega double
LOOKUP_TABLE default
-7.676128512356455
-1.2165652844126649
8.529805696095949
15.920713197223193
36.51651359291867
-6.478099890357045
2.4263376201371276
-4.461198542970506
-0.42310104359968315
1.9272659761962143
0.05231873168889577
-0.6383249986734437
0.4568618093628172
1.134008413012373
0.14755299675015482
0.8316297307922198
0.4853239716753929
0.8041335378433538
1.610778343061225
-0.11835373502911972
1.4734884821682954
1.2869955641283706
-0.5112381872796243
0.4986235648890263
1.07379875483708
1.046776499057482
0.7291587358068318
0.21163537267518817
0.43976867085690896
1.4105839321329614
1.108023037118835
0.1215260600103881
1.345498491810688
0.8551886105429005
0.4245493155964578
1.1685267234833003
0.7683483536551472
0.38865837625123495
1.3681834885139916
0.6946357716074075
1.4406043822342445
0.7310108296202056
0.4266833129938299
0.3702652775969064
0.9851659410359984
0.7638478636991811
2.2527818781139484
0.4860409571055645
-0.5310946395661463
2.269754089228235
0.9283074524981602
1.9631419492268618
9.652866055550858
-7.643984798201325
0.4445802618893323
2.5725401930711347
1.4747324884750155
-0.06306339804913097
-0.8587472106088554
-2.348554773504891
-3.0648289810904465
-1.7596312975746995
-0.30746919863661926
-0.753393264607172
-1.132219853193421
-0.08083775908365388
-0.7616870338384328
-0.37434036733459347
-1.0949519903586202
-0.8448174377331177
-0.3039293822865015
-0.7352490221330675
-0.45491843219158284
0.15287474364236364
-1.8179573731120457
-0.6374351738601106
0.4452626368576818
-1.5267680682416727
-0.5906008306846008
-0.2662391467018722
-1.1498666386625005
-0.8284554914574487
-0.43066704490878893
-1.1581166544583301
-0.9408399861842306
-1.5148629018187643
-0.12087001886547837
-0.562314481439394
-1.0577828122579143
-1.175984980381547
-0.7780337878598287
0.7529729839127112
-1.473697052105557
-1.2894832016860027
0.24801045705750444
-0.8843340611464143
-1.1412515961671235
-0.1355140921259926
-0.540255412243494
-1.5264747318941496
-1.5269296718252465
-0.34367950786564494
-1.8997870778177326
-0.4790359871415525
-2.0596841051820305
-0.4984759654621135
-0.1414375118863013
-2.0682670463475064
-1.9114147314234293
-0.8186762358113575
0.7510931807066505
-4.5930828465346405
2.6457774550852973
0.31207491586394065
-0.024987411386675037
-0.8569148044661223
1.6498703851127645
-5.887741070470447
-2.337781542992498
-42.61171191178068
-0.5121745004160975
0.44422149294713564
0.04768755860112014
-0.0934119814096953
-0.24473852006156752
-0.2359282977573632
0.17257382521582473
-0.3774233582329711
-1.4996726752672782
2.9962310899565385
2.293577146858806
-2.45765933177747
-2.5505791379304426
-2.2095925880721565
-2.4375993202711053
-1.930506910031567
2.7384764841836975
2.6493728525755653
2.53049833728955
2.7951356796042757
2.3113473127928836
2.6841509832114956
-3.0141690416630214
3.7492077226969296
-2.5935870057563895
-3.758258835647059
-3.7692877428461844
5.223079100021195
4.106137672424295
3.915078377486455
-4.602789375609255
-4.091731603719328
-4.109763478647066
-3.88140690434348
4.036473213337784
3.7695127756008517
4.0284465056023455
1.9625735878157862
4.495013878436758
-3.974587603518144
-1.7024954332683766
-4.546003308714776
-4.904479051949156
-1.4205845780043214
-0.1364428194318164
0.6665114535242963
-6.3848107091883275
-5.471856290223768
4.963541568536174
-5.147892890459173
5.203206200001893
5.021140051287476
-1.2683044212820724
-4.898958688428278
0.17192886865338386
0.10594132928254453
0.07314880118336017
-0.1558589814065266
-0.015334209989951999
-0.1598640242755107
0.08245278247378375
-0.10158473319720104
0.058270449567851205
0.10936125877168992
0.20064298584003706
-5.680414006483767
5.503110126304328
7.344217603987443
-5.96106703475132
5.974730472759985
5.9991031252694915
6.155208114593498
-5.6491276220368825
5.7573216869725465
5.420775859044713
-5.708170224188391
-5.534897204972687
-6.461982219407352
6.678208747077954
5.83693861085697
5.898271627301948
0.23159300590191523
13.2493823867306
5.804678811984609
-5.735438600231905
2.0287947478339183
2.2616141992629726
-2.1231149186822393
-5.5008837537663435
-2.3423738663546
-6.078170539989751
2.225423408516463
-2.168432376239798
-2.1916958859264253
-1.6602345239819114
1.6916189617280446
1.9134256879566558
-5.682489571040575
0.08798542174067334
6.210884025531169
1.5475441999655304
-1.89869976778746
-1.4676294250058044
1.9889592562741387
5.72246205858419
-1.6079482826327667
-1.2414845859724162
0.6108415349305397
2.3205984101019252
-6.125592883614041
-1.8753472431903697
-6.331200475296919
-6.3350191451156155
-6.5570851507234895
-1.6143939081466534
-6.406534911158517
-4.515251882557385
2.4424075223210586
-1.9659712833045773
-2.132387561620333
2.3344374904852248
1.9829435174871615
-1.9501082444095266
-1.2720482310024237
1.2230426455247314
1.3503318732701368
1.4159242499560187
1.834898039556872
2.7821011841111094
6.0263704735269155
-6.743070927718324
-7.722679036112435
-6.638532746294985
-8.566228396245648
6.559434594629297
7.187119261757543
-1.3432070397176805
6.849795164103577
-0.918054737522525
-1.0100781606165021
6.865664958036336
-5.697319497778569
8.236007655641314
6.034177793298535
-6.453683918730801
5.738213280998543
-1.8438518836656073
5.848088302096686
7.334437300385619
-1.8449303126015562
-8.764721418120452
-10.844816497465262
-8.803565704167317
6.855394739919076
6.1100507327153135
-1.0399272847044931
7.104079658230533
-2.169030657199657
-8.125222689640255
1.9108189415871581
-1.6760732333432322
-1.7319839240065564
23.714289459523485
-6.266346376369937
1.7982999050528177
-3.1334071770118728
3.326025150721791
2.9926879256682444
2.939886359062073
7.763746662045868
1.6155124418811566
-8.476688467009149
8.822229448465448
7.162816946315698
-1.4504779370664622
-1.3060593936629896
-3.028948443315834
7.032644779496985
-6.986159406725814
3.9044012391045766
-1.6986302704173044
-3.732781284094619
-0.44528868201218413
-6.628736383686308
3.2828152610977184
7.855189456756969
5.606976081637072
-3.962281817819581
-2.9681040025312355
-10.120031825999993
-0.32261095965474945
-8.556511259691831
-1.4064034261585021
-2.8463098032556586
-8.89447045544392
-8.067775124361336
-0.6963823112050257
-0.5002345397989943
-0.6981128989215746
0.7381826621162222
0.7356658737721717
-7.659238007572969
1.2760492174529245
-9.57032549256667
1.7621848984537523
-3.881319093318249
-4.131493491907497
10.073080391166075
2.8207778925130285
-2.973302100958818
2.88639655089305
-3.116667132601187
-2.848155767975905
2.922872714171541
6.871509017612067
-6.737261101390856
-3.9302400560886537
3.7843369716445086
-3.911211190565221
-1.2222519623317905
0.8443539386650297
5.287073783872979
-8.820936542296728
-0.6027538795161079
-0.6594584821662606
0.8888613012585951
0.7483836155609753
0.6115043509818081
-6.730813501595839
-8.020173277304115
-3.7300763278463487
3.8999553000579175
3.7130543018171114
0.8786866868119314
-0.7013083097703411
-0.5893436751646345
-9.407114816585318
0.6992206708276095
4.221462857317178
-3.765217813784942
9.759864924224424
-2.7796844804165115
-0.4442015248457239
0.19995565295175774
-0.6970708701027359
3.7578413785763605
0.2352303990854217
8.925459025318526
-0.26092174081680014
6.991983568067138
6.470892849944354
4.2952521422849115
5.5028191952961985
3.160736213855164
-8.218417055367906
-1.2919106397139808
1.7516709576668075
0.6182498017245807
1.5193645866266994
-1.5130371393952053
-4.418101210238438
-9.991915063143317
-0.48588392478395404
0.7364032452536794
3.406815730642854
0.5863536587277356
-0.46895153112271215
-0.4358879966778965
5.483226350392317
4.878958968255066