# vtk DataFile Version 1.0
2D Simulation C++
ASCII
DATASET UNSTRUCTURED_GRID
FIELD FieldData 1
NODES 1 2 int
715 1308

POINTS 715 double
0.0 0.0 0.0
5.0 0.0 0.0
5.0 1.0 0.0
0.0 1.0 0.0
0.10000000149011612 1.0 0.0
0.20000000298023224 1.0 0.0
0.30000001192092896 1.0 0.0
0.4000000059604645 1.0 0.0
0.5 1.0 0.0
0.6000000238418579 1.0 0.0
0.699999988079071 1.0 0.0
0.800000011920929 1.0 0.0
0.8999999761581421 1.0 0.0
1.0 1.0 0.0
1.100000023841858 1.0 0.0
1.2000000476837158 1.0 0.0
1.2999999523162842 1.0 0.0
1.399999976158142 1.0 0.0
1.5 1.0 0.0
1.600000023841858 1.0 0.0
1.7000000476837158 1.0 0.0
1.7999999523162842 1.0 0.0
1.899999976158142 1.0 0.0
2.0 1.0 0.0
2.0999999046325684 1.0 0.0
2.200000047683716 1.0 0.0
2.299999952316284 1.0 0.0
2.4000000953674316 1.0 0.0
2.5 1.0 0.0
2.5999999046325684 1.0 0.0
2.700000047683716 1.0 0.0
2.799999952316284 1.0 0.0
2.9000000953674316 1.0 0.0
3.0 1.0 0.0
3.0999999046325684 1.0 0.0
3.200000047683716 1.0 0.0
3.299999952316284 1.0 0.0
3.4000000953674316 1.0 0.0
3.5 1.0 0.0
3.5999999046325684 1.0 0.0
3.700000047683716 1.0 0.0
3.799999952316284 1.0 0.0
3.9000000953674316 1.0 0.0
4.0 1.0 0.0
4.099999904632568 1.0 0.0
4.199999809265137 1.0 0.0
4.300000190734863 1.0 0.0
4.400000095367432 1.0 0.0
4.5 1.0 0.0
4.599999904632568 1.0 0.0
4.699999809265137 1.0 0.0
4.800000190734863 1.0 0.0
4.900000095367432 1.0 0.0
5.0 0.8999999761581421 0.0
5.0 0.800000011920929 0.0
5.0 0.699999988079071 0.0
5.0 0.6000000238418579 0.0
5.0 0.5 0.0
5.0 0.4000000059604645 0.0
5.0 0.30000001192092896 0.0
5.0 0.20000000298023224 0.0
5.0 0.10000000149011612 0.0
4.900000095367432 0.0 0.0
4.800000190734863 0.0 0.0
4.699999809265137 0.0 0.0
4.599999904632568 0.0 0.0
4.5 0.0 0.0
4.400000095367432 0.0 0.0
4.300000190734863 0.0 0.0
4.199999809265137 0.0 0.0
4.099999904632568 0.0 0.0
4.0 0.0 0.0
3.9000000953674316 0.0 0.0
3.799999952316284 0.0 0.0
3.700000047683716 0.0 0.0
3.5999999046325684 0.0 0.0
3.5 0.0 0.0
3.4000000953674316 0.0 0.0
3.299999952316284 0.0 0.0
3.200000047683716 0.0 0.0
3.0999999046325684 0.0 0.0
3.0 0.0 0.0
2.9000000953674316 0.0 0.0
2.799999952316284 0.0 0.0
2.700000047683716 0.0 0.0
2.5999999046325684 0.0 0.0
2.5 0.0 0.0
2.4000000953674316 0.0 0.0
2.299999952316284 0.0 0.0
2.200000047683716 0.0 0.0
2.0999999046325684 0.0 0.0
2.0 0.0 0.0
1.899999976158142 0.0 0.0
1.7999999523162842 0.0 0.0
1.7000000476837158 0.0 0.0
1.600000023841858 0.0 0.0
1.5 0.0 0.0
1.399999976158142 0.0 0.0
1.2999999523162842 0.0 0.0
1.2000000476837158 0.0 0.0
1.100000023841858 0.0 0.0
1.0 0.0 0.0
0.8999999761581421 0.0 0.0
0.800000011920929 0.0 0.0
0.699999988079071 0.0 0.0
0.6000000238418579 0.0 0.0
0.5 0.0 0.0
0.4000000059604645 0.0 0.0
0.30000001192092896 0.0 0.0
0.20000000298023224 0.0 0.0
0.10000000149011612 0.0 0.0
0.0 0.10000000149011612 0.0
0.0 0.20000000298023224 0.0
0.0 0.30000001192092896 0.0
0.0 0.4000000059604645 0.0
0.0 0.5 0.0
0.0 0.6000000238418579 0.0
0.0 0.699999988079071 0.0
0.0 0.800000011920929 0.0
0.0 0.8999999761581421 0.0
0.7496038675308228 0.5164291858673096 0.0
1.3451675176620483 0.5190238952636719 0.0
1.9462687969207764 0.4963642954826355 0.0
4.456614971160889 0.5060901641845703 0.0
3.864220380783081 0.4866538345813751 0.0
3.249823808670044 0.482722669839859 0.0
2.6500000953674316 0.5 0.0
0.3810288906097412 0.399004191160202 0.0
2.308779239654541 0.3797946870326996 0.0
1.0499999523162842 0.6625000238418579 0.0
1.644740104675293 0.6598879098892212 0.0
4.150000095367432 0.3375000059604645 0.0
3.555316209793091 0.3343118131160736 0.0
2.9446933269500732 0.3401789665222168 0.0
1.6342840194702148 0.3290160894393921 0.0
1.0591840744018555 0.33908534049987793 0.0
2.9654481410980225 0.6753292679786682 0.0
3.5534629821777344 0.6835107207298279 0.0
4.153462886810303 0.6835107207298279 0.0
2.2139804363250732 0.6805098056793213 0.0
0.4914395809173584 0.6739721894264221 0.0
4.691666603088379 0.6916666626930237 0.0
4.691666603088379 0.3083333373069763 0.0
2.4872219562530518 0.7236665487289429 0.0
0.6240421533584595 0.2677222192287445 0.0
2.0697431564331055 0.2657754421234131 0.0
2.5389034748077393 0.26082900166511536 0.0
0.8147311806678772 0.7450684309005737 0.0
1.2897310256958008 0.743314266204834 0.0
1.8853894472122192 0.7450258731842041 0.0
4.382374286651611 0.23655959963798523 0.0
3.910269021987915 0.25668570399284363 0.0
3.1838724613189697 0.25397706031799316 0.0
1.398239254951477 0.2614254057407379 0.0
3.201760768890381 0.7385746240615845 0.0
3.8017609119415283 0.7385746240615845 0.0
4.39177942276001 0.7466779351234436 0.0
0.25301694869995117 0.7458874583244324 0.0
2.7258167266845703 0.7600342631340027 0.0
0.84163498878479 0.2263137847185135 0.0
0.22429518401622772 0.22429518401622772 0.0
2.7605957984924316 0.22504857182502747 0.0
1.8330284357070923 0.2150011658668518 0.0
0.2192869633436203 0.5323538780212402 0.0
4.7908525466918945 0.5038931369781494 0.0
2.466000556945801 0.5376454591751099 0.0
3.7061264514923096 0.17723728716373444 0.0
3.3929696083068848 0.20266839861869812 0.0
1.4905184507369995 0.7937026619911194 0.0
1.2104878425598145 0.20361483097076416 0.0
3.9895122051239014 0.7963851690292358 0.0
3.389512300491333 0.7963851690292358 0.0
0.5652223825454712 0.5070380568504333 0.0
0.44509074091911316 0.19716571271419525 0.0
2.1318352222442627 0.5042122602462769 0.0
1.548349142074585 0.4954715371131897 0.0
3.050636053085327 0.5004673004150391 0.0
0.9511125087738037 0.498258113861084 0.0
3.651650905609131 0.5045284628868103 0.0
4.248488903045654 0.4980509281158447 0.0
1.1537858247756958 0.49593159556388855 0.0
4.050199031829834 0.49993085861206055 0.0
3.464722156524658 0.509624183177948 0.0
1.749653697013855 0.5001751780509949 0.0
2.851828098297119 0.5057260394096375 0.0
2.359710216522217 0.1888567954301834 0.0
2.0499017238616943 0.8199846148490906 0.0
0.6430503129959106 0.8181284070014954 0.0
4.560274600982666 0.1724673956632614 0.0
4.55863094329834 0.8299665451049805 0.0
2.321284055709839 0.8242537379264832 0.0
4.815218925476074 0.8345447778701782 0.0
4.837246894836426 0.16590170562267303 0.0
0.9682294130325317 0.8331464529037476 0.0
1.730908751487732 0.827606201171875 0.0
4.220076560974121 0.17516615986824036 0.0
3.02066969871521 0.18326662480831146 0.0
1.5634372234344482 0.17044226825237274 0.0
3.035303831100464 0.8294908404350281 0.0
3.627507209777832 0.8360387086868286 0.0
4.2312469482421875 0.8315803408622742 0.0
4.618130683898926 0.5361976027488708 0.0
0.40311703085899353 0.8369210362434387 0.0
1.1473191976547241 0.8458209037780762 0.0
4.052680969238281 0.15417908132076263 0.0
2.020958423614502 0.6394158005714417 0.0
0.662188708782196 0.6447370648384094 0.0
4.5115838050842285 0.3538685142993927 0.0
1.0221220254898071 0.15309639275074005 0.0
0.3837882876396179 0.5515117049217224 0.0
3.548090934753418 0.15800617635250092 0.0
1.4348299503326416 0.6465393304824829 0.0
3.765170097351074 0.3534606993198395 0.0
3.3348300457000732 0.3534606993198395 0.0
1.2546738386154175 0.36384353041648865 0.0
3.945326089859009 0.636156439781189 0.0
3.3412928581237793 0.637225866317749 0.0
2.1904795169830322 0.17066854238510132 0.0
0.16392111778259277 0.38331863284111023 0.0
2.87723445892334 0.8265392184257507 0.0
4.8459792137146 0.6499902606010437 0.0
4.845625400543213 0.34837812185287476 0.0
2.771622896194458 0.38129922747612 0.0
4.5222978591918945 0.6578375697135925 0.0
2.604464530944824 0.8240283727645874 0.0
1.8544400930404663 0.3751189708709717 0.0
0.8566747903823853 0.38255012035369873 0.0
2.2932615280151367 0.5369129776954651 0.0
2.620572805404663 0.6496497392654419 0.0
0.7172287106513977 0.1490369737148285 0.0
0.1410960853099823 0.8303417563438416 0.0
1.7142322063446045 0.142862930893898 0.0
2.6314175128936768 0.14492936432361603 0.0
1.9832650423049927 0.1408119648694992 0.0
2.445650577545166 0.370038241147995 0.0
2.885042667388916 0.1455758661031723 0.0
0.13937503099441528 0.6546638011932373 0.0
0.9110832810401917 0.6349053978919983 0.0
3.088575839996338 0.3613528311252594 0.0
4.296638011932373 0.3563385307788849 0.0
1.1930090188980103 0.6355591416358948 0.0
1.788455843925476 0.6387236714363098 0.0
4.006990909576416 0.3644408583641052 0.0
1.4459187984466553 0.39242905378341675 0.0
4.354081153869629 0.6075709462165833 0.0
3.7540812492370605 0.6075709462165833 0.0
3.1591691970825195 0.6018876433372498 0.0
2.7615907192230225 0.6205627918243408 0.0
2.36276912689209 0.6735464930534363 0.0
1.3681535720825195 0.8630191683769226 0.0
3.8318464756011963 0.1369808316230774 0.0
3.275517463684082 0.10712132602930069 0.0
0.5630941987037659 0.12814241647720337 0.0
1.3237862586975098 0.10638008266687393 0.0
3.2733232975006104 0.8705052733421326 0.0
3.8733232021331787 0.8705052733421326 0.0
2.0396511554718018 0.38928428292274475 0.0
2.2168734073638916 0.8508136868476868 0.0
0.5163488388061523 0.3409615159034729 0.0
0.6547463536262512 0.3955095112323761 0.0
1.9480526447296143 0.8710126876831055 0.0
4.689375877380371 0.13700176775455475 0.0
4.698264122009277 0.8675068616867065 0.0
0.7578787803649902 0.8698469996452332 0.0
2.479548454284668 0.13692785799503326 0.0
2.4562506675720215 0.8735422492027283 0.0
2.171211004257202 0.3573116958141327 0.0
3.5117530822753906 0.853193998336792 0.0
4.107914924621582 0.8658969402313232 0.0
2.640726327896118 0.354434996843338 0.0
4.346996307373047 0.1279495507478714 0.0
0.3128283619880676 0.11246757209300995 0.0
0.136248379945755 0.12152919173240662 0.0
4.453908443450928 0.8629162907600403 0.0
1.6064813137054443 0.8679171800613403 0.0
0.3380795121192932 0.6626779437065125 0.0
0.5102446675300598 0.875635027885437 0.0
0.7425088882446289 0.2989330589771271 0.0
3.1349449157714844 0.10448489338159561 0.0
1.3287748098373413 0.6181886196136475 0.0
3.871795415878296 0.38215625286102295 0.0
3.229135036468506 0.3810797333717346 0.0
0.28971707820892334 0.8759857416152954 0.0
0.9214505553245544 0.11992674320936203 0.0
1.9219478368759155 0.6237660050392151 0.0
1.530794620513916 0.29603153467178345 0.0
3.072223663330078 0.7044162750244141 0.0
3.6722235679626465 0.7044162750244141 0.0
[...]
POINT_DATA 715
SCALARS Psi double
LOOKUP_TABLE default
0.0
0.0
1.0
1.0
1.0
1.0
1.0
1.0
1.0
1.0
1.0
1.0
1.0
1.0
1.0
1.0
1.0
1.0
1.0
1.0
1.0
1.0
1.0
1.0
1.0
1.0
1.0
1.0
1.0
1.0
1.0
1.0
1.0
1.0
1.0
1.0
1.0
1.0
1.0
1.0
1.0
1.0
1.0
1.0
1.0
1.0
1.0
1.0
1.0
1.0
1.0
1.0
1.0
0.9185246029383406
0.8631734682775477
0.7613007862725026
0.6271516865382034
0.47400158526863667
0.31925256091744936
0.18151347598648992
0.07616914318660963
0.020294921543929575
0.0
0.0
0.0
0.0
0.0
0.0
0.0
0.0
0.0
0.0
0.0
0.0
0.0
0.0
0.0
0.0
0.0
0.0
0.0
0.0
0.0
0.0
0.0
0.0
0.0
0.0
0.0
0.0
0.0
0.0
0.0
0.0
0.0
0.0
0.0
0.0
0.0
0.0
0.0
0.0
0.0
0.0
-0.0
0.0
0.0
0.0
0.0
0.0
0.0
0.02734459329267028
0.10768273021846163
0.209209587966018
0.31084449972480277
0.41242878877008143
0.5107815671090982
0.6026020331604506
0.6784191557181574
0.6416254331536227
0.5298165277156975
0.5415101575720347
0.5010431361800936
0.49430075155918657
0.4685025467059146
0.469918460064456
0.5125443007986119
0.3203029734046795
0.314276584056238
0.7731569696257693
0.7600167333727643
0.2315442393551263
0.2253495592827099
0.2495857601910351
0.23059969279848502
0.2555870327794003
0.7894688437198357
0.7852878714411445
0.7826772050703849
0.7956348752425443
0.7597142629338723
0.7818072018786906
0.1833861347503934
0.8529001729922552
0.15672614867530552
0.14916010982820266
0.14460910372294802
0.8813547420553888
0.8744682358254845
0.8725802803609872
0.09469599942708604
0.12527297233504223
0.12488261445871968
0.13734943425114993
0.8656298578378777
0.8590760255579706
0.8649744777959526
0.7933990698777197
0.8988370774038809
0.11062022792143884
0.11125394170603105
0.09930332089432804
0.0850231718891677
0.46450462566922535
0.4825079002473462
0.5747944227002365
0.04080168332767829
0.06341439058126858
0.9269345762066008
0.07033030705679334
0.9231726422888311
0.9239644632598113
0.4952534098012652
0.07113825129621218
0.5166086398577753
0.49944675037646197
0.5064074210030952
0.509545477340789
0.4990120126312184
0.4845030242089693
0.50620531756545
0.48959304973013174
0.5094179867853219
0.50611810267868
0.5202438991417891
0.059567309832971906
0.952551815647859
0.958969520487991
0.038574955144397745
0.9519908188082845
0.958961032899436
0.94047954262495
0.030761566956376052
0.9638495924774332
0.9549993976658385
0.04167652676148909
0.053396552417257166
0.04180531107909285
0.9645102459718553
0.9600531973023031
0.9566426750369428
0.5402749145822663
0.9786277504866865
0.9706540766442121
0.030692144294439155
0.7314008746460391
0.7342185632863094
0.2497476951031249
0.036835018121308294
0.5291555139655434
0.02933947844758118
0.7433554537324981
0.25395561312921316
0.2577329241140164
0.28827843037248235
0.7116229731555356
0.7189956860139171
0.046038348585791984
0.2947616057692004
0.9639121837832358
0.7110400979450302
0.23606799689306068
0.3167964126182077
0.7387319276281666
0.9594820910091879
0.3027536464845718
0.3223735877298946
0.5721061337378498
0.7532354803937736
0.037206279063038535
0.8225645610721637
0.026322786874313827
0.02833818796705373
0.02594954642737052
0.3002141538898215
0.02696405538720476
0.583752351106365
0.7309528858302047
0.2780108981580612
0.2567087006345628
0.730960287042301
0.7278257209519158
0.2727742498353872
0.330968484488719
0.6628102609221066
0.6676293311968916
0.6697814650927124
0.7079540053985262
0.7851862557637268
0.9786884008693986
0.017980956317223375
0.0016315313877215977
0.021243515889667046
0.0009219961423572519
0.9808908869893624
0.9817828563343234
0.32771963826463174
0.9758466210866341
0.24950379385593263
0.3343309607023922
0.9850676687149733
0.020516992974384474
0.978123961193822
0.9849228047258357
0.024017026126327768
0.9840971729755901
0.27877399853437873
0.9687403003159117
0.9794827686680759
0.2763466305804456
0.00584325502188172
0.006015476563155436
0.02258792802500602
0.9767069108591094
0.9805005383075722
0.6941135233072707
0.992195370168232
0.19992298730751543
0.0029141611368774284
0.7016030656438097
0.2997021492356474
0.304415795104271
1.0187604650940825
0.021797780560263512
0.7056274536890824
0.1839798838714632
0.8263082694065904
0.8133018168159308
0.8104559480168101
1.0062189884134136
0.6888225088929806
0.004116217604109606
0.9946778500801504
0.994334606403337
0.15501542721352327
0.3301365809886947
0.1871948394604766
0.9959654520789558
0.003626492282828306
0.8665860066625306
0.296241267391278
0.12781770960141267
0.34087796695269695
0.011935177775823026
0.16198008029282873
0.9904061413620452
0.9901437530346227
0.1303524753514048
0.1939474670836817
-0.00174893752767726
0.44590357656087387
-0.0037403900430615653
0.4047249666533454
0.19733199773716342
-0.003999668060833877
0.0004975925019731474
0.4113096378524813
0.43001232813890833
0.41387713661633385
0.5915365051584193
0.5871419218241
0.003087677465726626
0.5530803041850358
0.0016164650468782375
0.6947273152487461
0.13349242875340359
0.6020552455277791
1.001368375975484
0.8000283150194382
0.17426194966456485
0.7982874278315516
0.18422270366000662
0.2029855928227612
0.8110810387360553
0.9985387975601759
0.0014753059018744517
0.13419383174207627
0.8622335774013506
0.1351180263637981
0.3307785919903645
0.6169296661057037
0.8238945712281185
0.11279295230541324
0.40884394453154344
0.4168069480548086
0.6097879235738655
0.5941983806232037
0.5891078364088379
0.020281196064486067
0.6538400305267712
0.1390061909422169
0.8619441153295275
0.8574379684906851
0.5936139719609387
0.40898877806756934
0.4239368506136527
0.0035469233743948766
0.5867676503707984
0.8667195585815369
0.13742771336038817
1.0067662191816973
0.2011599514061654
0.5740766039180755
0.6577303613837286
0.4090451486600022
0.8597071759156703
0.5811328584940214
0.9994890218330954
0.45555865135946366
0.9879794098191347
0.9871423916529655
0.8920570987995513
0.8671747180364241
0.9580089490407894
0.006694724959463416
0.4238616871230972
0.7061785751073686
0.5761007970121994
0.6805797890602782
0.37343507808370885
0.10707428357966269
-0.0013846493292742732
0.44108841959907624
0.2114001694968696
0.8376754816815505
0.5617585283291193
0.44058220439739054
0.4457571008580137
0.8511800202477179
0.876079438653846
0.14003615554703042
0.12611421878950968
0.8644476993675976
0.4145994555465172
0.9991652157824665
0.14228023633418768
0.9017418962702859
0.902765321209965
0.36187554963903723
0.9157241093148537
1.0040211387639293
0.11783042975310071
0.14776404597438725
0.6722106246276874
0.3258224972358504
0.6728742950931036
0.6859935883421233
0.0867532117856512
0.6643548621460136
0.33577950139675294
0.3351860122312891
0.006510341463559153
0.47673515607608286
0.26426196711411776
0.7327144648192143
0.760692864076963
0.3418532097589854
0.8758886821953737
0.6618283250280103
0.6576119696953092
0.6324451319807961
0.007758888142221416
0.007653304199654618
0.13686464449274896
0.8196668802945115
-0.003318675684742214
0.9158986403413196
0.9148747710759015
0.844141590977005
-0.0036674388084710187
-0.0031227465226520827
0.19005768361355885
0.34514348845153775
-0.00013100567812035561
1.0005303340966891
0.33688731740480177
0.8837070800814599
1.0002850975399198
0.8825529718060087
0.1230346335971499
1.006157284030248
-0.001966897016277577
0.10698754253967688
0.9953117918216466
-0.0006333331231821543
0.3184317436260956
0.0005972104823111723
0.6877999259886417
0.0037370196140604577
1.0022506942906646
1.0047116127900795
0.11328167974152423
0.4931062196384965
0.15598539861558983
0.9978090608150608
0.8852549086285693
0.9990241163623307
0.3347240863509464
0.9993380696553461
1.0028070469762589
0.13389206572485385
0.0895604140581402
8.202836293732895e-05
0.2857560114074801
0.649103744094611
0.5854802716689171
0.412385900615546
0.5598770634857733
1.0042018034353613
0.25551549393436834
0.5698776398862695
1.0001466014634275
0.000208973445453202
-0.0014851504821774284
0.19387738290845727
0.40705122211538564
0.5801008453639777
-0.0019497561626777805
0.9181277696753253
1.0056436288640094
0.8847157679149533
0.09249588253146554
0.9120254153071378
0.9047482223671233
0.6342366103601078
0.0811093257978489
0.8929336452185095
-0.0019496942968465086
0.2860908379281171
0.0025951381372959995
0.9316548565687944
0.06906729852547015
-0.0016465223781945764
0.5846511090070243
0.5398745502244159
1.00445757658895
1.015462591470532
1.0016834283922467
0.0012885509118970692
0.43449959981059777
0.6791547846334717
0.6859416259424508
0.6766347893073816
0.3229037784580427
0.31895192994962046
0.33333166052367685
0.9433907312885653
1.0353976574021255
0.9973638049324163
0.9945458016600182
0.9630806669317913
0.6846216779357311
0.7561447266231449
-0.002214002439354407
0.06487623663201111
0.7890701294348103
0.7030845470198422
0.2390516050863477
0.8726606122363215
0.08767335104986847
0.07787684180038859
0.717537419809919
0.616117924399943
0.4343398547315834
0.9982014209923704
1.001444802480111
0.7690195526775627
0.10029421632099933
0.9299651922790574
0.21790589073357672
0.9517159246395572
0.0558091089689953
1.0004442191703373
0.002144149904830824
0.3713327973154058
0.6115341857214469
0.36669946048326935
0.8331634438496626
0.04326755546075445
0.5919445573422669
0.37547612884870174
0.833806171995551
-0.0013166344125101787
-0.0037436785594819415
0.18942622863623212
0.1780506840521977
0.05710079036617116
0.10802239474139548
0.9456092163000114
0.8390511632230335
0.16339803381888465
0.8006745892582615
0.20818898197520325
0.906812830536231
0.8993179273450685
0.899064945570773
-0.0049294870102129795
0.9393119723496776
0.35855798517872944
0.22211565579142412
1.0006447657119404
0.17305750861604696
0.5561116449543995
0.7106298465627322
0.6063203667718858
0.6408390677502404
0.043858085276274085
0.9506349562531959
0.9493676163059453
0.05867785665850911
0.6962390657251543
-0.0064038455648788
1.0062674840451387
1.0039847497755179
0.03782034702309201
0.045646263470915174
0.8926850476798168
0.25177654511163444
0.9463444382324362
0.45361860020824124
0.8586862314365281
-0.0004002411192159903
0.6406859228719094
0.35644594203464564
0.3665439332941864
1.0013646061568586
-0.00228327203188348
0.5573040683079492
-0.007545301453164086
0.41333260797873245
0.06772937106742721
-0.0011372240981907915
0.23764449546716618
0.6248734867364079
0.720282368121207
0.7795587587968527
0.9486895827269151
0.049157568167207226
0.24723760165891503
0.18893075452501104
0.7693393538585642
1.0047759877765496
0.2330101928724193
0.0714042416407621
0.18984449539113565
0.05580939608932255
0.9273925917068504
0.04816864491150674
0.21193268003116905
0.7814611107759049
0.7853735933069809
0.7960859310743766
0.4076388180647287
1.0058574845119381
0.37344174184026524
0.9156585494448162
-0.0014074549387147672
0.05194058173201402
0.04161238155412159
0.5972596710273702
0.07286013605426883
0.0021010065838235406
0.0598723646191693
0.08156013139530707
0.4188605565827979
0.5599406772846678
0.031181705681291784
0.20057193973513573
-0.0018208393565128085
1.000190388067657
0.9187901816382601
0.43351502574224604
0.5668658345709735
0.6232632182947542
0.9369737783464197
0.05255793269001434
0.05094783527652336
0.9982139519332278
0.03140436300949339
0.5060315577320713
0.331995280185259
0.1186100732306254
-0.0010342538417948048
0.7903627096607925
0.9493623821209137
0.14636797981893018
0.1283317099999336
0.849485474892356
1.00181094461401
0.04515152668704326
0.9414475995485071
0.9406809278246147
0.44677991068636813
0.44271070411321645
1.0009619509625058
0.21421390514516533
0.3346454823376736
0.377092691579082
0.00024302949376011084
0.9662954886723959
0.9673119679175383
0.2444888064902292
0.5931994137115476
0.8270600783422557
0.829949441515707
0.19022517863087987
0.8285802180034888
0.2390394197544989
0.8776414464442155
0.8763892716362854
0.6190872282174514
0.8918415662733513
0.6160149060304764
0.05311128128522482
0.9501703706032093
0.3944032799761337
0.6215673406197636
0.3781482084280117
-0.007705230331406233
0.3125646762605626
0.05678830583704247
-0.0007100529547513933
0.565276442373259
0.1178542948523624
0.2207499303366566
0.08608402336130748
0.800016226289778
0.8727714859288238
0.9751095921098333
0.5829248741010744
0.0032131569816436236
0.40814726204348956
0.07775848298586541
0.999295590280468
1.000355522225334
-0.0011153314168050855
0.05791154948388254
0.9439501329494928
0.00038022407910866355
-0.004777765461841533
0.23743072645759553
0.7646797588852972
0.4367819895450012
1.003051637760184
0.23098009752787718
0.815993463718981
0.2002541224638296
0.8048517148459878
0.19442864685323907
0.9787327074153164
0.0017248531669933494
0.41442001750176466
1.000856744333951
0.9582377136628035
0.04474157958062339

SCALARS Omega double
LOOKUP_TABLE default
-7.676194390527455
-1.2128091913804544
8.533660773344248
15.920771384062101
36.51548324193123
-6.47798845214571
2.4253243821696473
-4.463302391874089
-0.42426489720466143
1.927841075362376
0.053302707396749124
-0.6355588301563339
0.4632250796999337
1.1345403295058565
0.1584687240503551
0.8296368634895276
0.48615332130234906
0.8005761094278874
1.598235247883718
-0.11660068379925097
1.4644921017692953
1.2822795404880305
-0.5038897458454517
0.49905624268184684
1.0741169440799834
1.0476408436787998
0.7325941741297454
0.21666063600974644
0.4419905961722916
1.4105595994951476
1.1069969683807057
0.12463161095472833
1.3427581963969528
0.8542392639957376
0.423562701059689
1.163274945291694
0.766743049069129
0.3875519092525177
1.362924030007872
0.69272004143556
1.4349788667191024
0.7276436231411723
0.4268426781309146
0.3682495400133351
0.9810065291384867
0.7597577976811731
2.2415883795916183
0.4835705097917779
-0.5259830517235292
2.2605185677313315
0.923603095210942
1.9550586055191184
9.647391152568295
-7.658816067936122
0.45517044806862306
2.595830058971031
1.4874222061945899
-0.06671322195724878
-0.8830852565468169
-2.3731208947491798
-3.0842915825255424
-1.7420867618220148
-0.3014501034939473
-0.7424426673210907
-1.1249391889974092
-0.08566582190309356
-0.7565003789902635
-0.3749277570034406
-1.0921685878928338
-0.8413256142217594
-0.30397106623476416
-0.731390222862369
-0.45443154656090945
0.14840499040507224
-1.8106758994783163
-0.6380277996494397
0.43810079979540373
-1.5234899127731072
-0.5922835875862368
-0.26958516390663834
-1.1478115535052569
-0.8270965474455502
-0.430878399126437
-1.1546055022356088
-0.9368426144721974
-1.507694253870275
-0.12443786200627556
-0.5614110876365098
-1.0496622279638326
-1.1677688435624294
-0.7735864889244926
0.7477215181596
-1.4659059524450795
-1.2829704740305392
0.24465565997178426
-0.8804135530762366
-1.1376370107272133
-0.13554691286409662
-0.540418334426813
-1.5239845103367786
-1.5261861112741797
-0.3506371035972381
-1.9006715858792398
-0.4808476095554479
-2.06234122198393
-0.4988684731177714
-0.14173699653937877
-2.0685516834571827
-1.9114421636751593
-0.8187731177051961
0.7510139707576616
-4.593017856528012
2.6457755529387206
0.31204108762205024
-0.025125280981449415
-0.8569393164537434
1.6497948575575692
-5.887998408336959
-2.3381251671538843
-42.611133018486356
-0.5140561803797737
0.45630575499909753
0.049766613171719085
-0.09334322438995485
-0.25458450844608677
-0.2386393180215384
0.1767256971632794
-0.37667552519887787
-1.5391667234937485
3.0270240435520703
2.3499863301638615
-2.5016607197514635
-2.5943723995670935
-2.2480044838448303
-2.4792295944761715
-1.9554984814048204
2.7789308295000907
2.696638910486939
2.582313988799453
2.8266689959649116
2.3109005332149612
2.7227936192228093
-3.0609945497598967
3.7732796827509203
-2.592498761927828
-3.7952711528222594
-3.7984291790878717
5.2234089422811
4.151348257491313
3.93265178514363
-4.6210451519676745
-4.126279737504427
-4.129796706589031
-3.9104005953591554
4.061194800302377
3.804571692347329
4.0574565600931845
1.9631967177822083
4.510530815224217
-3.975293059016863
-1.7024779466599755
-4.564019605219763
-4.921944508659163
-1.4204049787138628
-0.14427088159602885
0.6807658986998277
-6.372783382756465
-5.468763575425568
4.977059054158701
-5.152970556205114
5.2120213707380705
5.027998768485332
-1.2678455776902031
-4.898486596527874
0.17397478878441666
0.1110151553550614
0.07898930317885587
-0.16083621036645812
-0.016017465421114162
-0.16237838611530012
0.0788899596363647
-0.1046512763899753
0.06254284219220381
0.11722345894093238
0.20987066694507422
-5.6774274602457835
5.491673202025758
7.339622301570114
-5.943124319385944
5.966442629212781
5.983733629144794
6.1549622960734185
-5.625375096624879
5.739584960619873
5.405389106029937
-5.695327466770148
-5.531278301649271
-6.455108855901549
6.659572117847064
5.821166689229445
5.888384623262354
0.24247628151380343
13.251636751645439
5.77638890215529
-5.716144537850403
2.0621624867339357
2.2616951093224658
-2.1708096283712814
-5.490415641574415
-2.3415397280728536
-6.056782716542092
2.2895492680531957
-2.2176795106270206
-2.227971053647493
-1.6959937752769074
1.7414601076591611
1.9550563546805095
-5.67532708395701
0.0877985173546078
6.19244847605501
1.5852588519082011
-1.9523694916953869
-1.5014240075249332
2.0361868177824927
5.7091946460079965
-1.6469771309139305
-1.2502925895079027
0.6242231149159734
2.3611490825846357
-6.120068443317058
-1.8740098403899674
-6.313077147816877
-6.318738550264992
-6.531205877255998
-1.6552758088411759
-6.387911478125692
-4.515385235938012
2.4539471464965374
-1.9974963548118818
-2.1747245215831144
2.377787075230099
2.0242419881233307
-1.9986179232464127
-1.3065798327116889
1.2630195510023583
1.3898930595788128
1.4526986040791994
1.8747712771029144
2.812316917859619
5.989338189966345
-6.711336333531405
-7.69437408480064
-6.63749188673501
-8.535991552946316
6.530440144174773
7.154206195202431
-1.3829278168798225
6.828409279780638
-0.9171878243401484
-1.0105482338211953
6.840977476014334
-5.663473271126547
8.212410483039198
6.025278634824945
-6.427307639389947
5.717121083688661
-1.8908637123129342
5.827716555083741
7.3048550903222615
-1.887170023267689
-8.721272769675956
-10.845534469821404
-8.803833884120067
6.829238226602976
6.075910282459436
-1.0396129296659686
7.106359460735359
-2.170678309075737
-8.095189479009264
1.961638546975637
-1.7224252579019192
-1.7603796530213431
23.713842712787674
-6.254352438102559
1.8304160443348385
-3.170792061397895
3.3601601711279114
3.0381185135305486
2.9859010584137686
7.7212371175403955
1.6175452423814125
-8.44926943492305
8.7754918475298
7.128892251092291
-1.4502457129876416
-1.3493568638179347
-3.075321124786711
6.973269130121244
-6.944864301310765
3.9310761487739105
-1.739059610231785
-3.7417444837198484
-0.4450116037803132
-6.593318774539255
3.2827189859887445
7.820297553106263
5.594645227942321
-3.993882717062254
-3.0104975265428204
-10.089276059602193
-0.33634881264432953
-8.513515500657928
-1.4064661091284474
-2.885972180915602
-8.852394228426071
-8.030736417550157
-0.7182547007759958
-0.5119276945893114
-0.7170587743129397
0.7456359611460138
0.7661277106339602
-7.61012080441218
1.2910171985648493
-9.51977716319867
1.7940759654640088
-3.910221254464744
-4.131268127488199
10.01956828591584
2.869507651570736
-3.000456888375177
2.928254232738961
-3.1542231462945067
-2.8930841786142896
2.983854830616717
6.825903627265235
-6.695702356955915
-3.966895211478364
3.8382260669536543
-3.935895826209209
-1.2382270251018304
0.8710105627744688
5.360537467103096
-8.911230226142177
-0.620392705297769
-0.6754443281202097
0.9177040396506521
0.7707175220262911
0.636523030145637
-6.723542674613777
-8.020420111476387
-3.757875149465115
3.9294383719318264
3.7523197528197225
0.8987294875272426
-0.7267386835760897
-0.6012420757978945
-9.347608187513082
0.7228788424328684
4.264184728322549
-3.8023865133926193
9.714369656331838
-2.8243148730849237
-0.44461571590245635
0.19980945140106468
-0.7202712081055728
3.7765924716370702
0.23517110193174773
8.85836367501634
-0.2739640739141143
6.95258626060396
6.437357700662841
4.318599744265725
5.500971837713186
3.118094237163995
-8.154458763229462
-1.2907470969031842
1.795539193194143
0.6344595389035207
1.5495036452410167
-1.5759124395627666
-4.437463059759607
-9.99421982117217
-0.4988728026742487
0.7364468757620659
3.431317163524257
0.6080940948060363
-0.48495391269341237
-0.44475643748468
5.482235123120421
4.889940604708076
-3.8608561785915256
-3.904759728318213