# vtk DataFile Version 1.0
2D Simulation C++
ASCII
DATASET UNSTRUCTURED_GRID
FIELD FieldData 1
NODES 1 2 int
715 1308

POINTS 715 double
0.0 0.0 0.0
5.0 0.0 0.0
5.0 1.0 0.0
0.0 1.0 0.0
0.10000000149011612 1.0 0.0
0.20000000298023224 1.0 0.0
0.30000001192092896 1.0 0.0
0.4000000059604645 1.0 0.0
0.5 1.0 0.0
0.6000000238418579 1.0 0.0
0.699999988079071 1.0 0.0
0.800000011920929 1.0 0.0
0.8999999761581421 1.0 0.0
1.0 1.0 0.0
1.100000023841858 1.0 0.0
1.2000000476837158 1.0 0.0
1.2999999523162842 1.0 0.0
1.399999976158142 1.0 0.0
1.5 1.0 0.0
1.600000023841858 1.0 0.0
1.7000000476837158 1.0 0.0
1.7999999523162842 1.0 0.0
1.899999976158142 1.0 0.0
2.0 1.0 0.0
2.0999999046325684 1.0 0.0
2.200000047683716 1.0 0.0
2.299999952316284 1.0 0.0
2.4000000953674316 1.0 0.0
2.5 1.0 0.0
2.5999999046325684 1.0 0.0
2.700000047683716 1.0 0.0
2.799999952316284 1.0 0.0
2.9000000953674316 1.0 0.0
3.0 1.0 0.0
3.0999999046325684 1.0 0.0
3.200000047683716 1.0 0.0
3.299999952316284 1.0 0.0
3.4000000953674316 1.0 0.0
3.5 1.0 0.0
3.5999999046325684 1.0 0.0
3.700000047683716 1.0 0.0
3.799999952316284 1.0 0.0
3.9000000953674316 1.0 0.0
4.0 1.0 0.0
4.099999904632568 1.0 0.0
4.199999809265137 1.0 0.0
4.300000190734863 1.0 0.0
4.400000095367432 1.0 0.0
4.5 1.0 0.0
4.599999904632568 1.0 0.0
4.699999809265137 1.0 0.0
4.800000190734863 1.0 0.0
4.900000095367432 1.0 0.0
5.0 0.8999999761581421 0.0
5.0 0.800000011920929 0.0
5.0 0.699999988079071 0.0
5.0 0.6000000238418579 0.0
5.0 0.5 0.0
5.0 0.4000000059604645 0.0
5.0 0.30000001192092896 0.0
5.0 0.20000000298023224 0.0
5.0 0.10000000149011612 0.0
4.900000095367432 0.0 0.0
4.800000190734863 0.0 0.0
4.699999809265137 0.0 0.0
4.599999904632568 0.0 0.0
4.5 0.0 0.0
4.400000095367432 0.0 0.0
4.300000190734863 0.0 0.0
4.199999809265137 0.0 0.0
4.099999904632568 0.0 0.0
4.0 0.0 0.0
3.9000000953674316 0.0 0.0
3.799999952316284 0.0 0.0
3.700000047683716 0.0 0.0
3.5999999046325684 0.0 0.0
3.5 0.0 0.0
3.4000000953674316 0.0 0.0
3.299999952316284 0.0 0.0
3.200000047683716 0.0 0.0
3.0999999046325684 0.0 0.0
3.0 0.0 0.0
2.9000000953674316 0.0 0.0
2.799999952316284 0.0 0.0
2.700000047683716 0.0 0.0
2.5999999046325684 0.0 0.0
2.5 0.0 0.0
2.4000000953674316 0.0 0.0
2.299999952316284 0.0 0.0
2.200000047683716 0.0 0.0
2.0999999046325684 0.0 0.0
2.0 0.0 0.0
1.899999976158142 0.0 0.0
1.7999999523162842 0.0 0.0
1.7000000476837158 0.0 0.0
1.600000023841858 0.0 0.0
1.5 0.0 0.0
1.399999976158142 0.0 0.0
1.2999999523162842 0.0 0.0
1.2000000476837158 0.0 0.0
1.100000023841858 0.0 0.0
1.0 0.0 0.0
0.8999999761581421 0.0 0.0
0.800000011920929 0.0 0.0
0.699999988079071 0.0 0.0
0.6000000238418579 0.0 0.0
0.5 0.0 0.0
0.4000000059604645 0.0 0.0
0.30000001192092896 0.0 0.0
0.20000000298023224 0.0 0.0
0.10000000149011612 0.0 0.0
0.0 0.10000000149011612 0.0
0.0 0.20000000298023224 0.0
0.0 0.30000001192092896 0.0
0.0 0.4000000059604645 0.0
0.0 0.5 0.0
0.0 0.6000000238418579 0.0
0.0 0.699999988079071 0.0
0.0 0.800000011920929 0.0
0.0 0.8999999761581421 0.0
0.7496038675308228 0.5164291858673096 0.0
1.3451675176620483 0.5190238952636719 0.0
1.9462687969207764 0.4963642954826355 0.0
4.456614971160889 0.5060901641845703 0.0
3.864220380783081 0.4866538345813751 0.0
3.249823808670044 0.482722669839859 0.0
2.6500000953674316 0.5 0.0
0.3810288906097412 0.399004191160202 0.0
2.308779239654541 0.3797946870326996 0.0
1.0499999523162842 0.6625000238418579 0.0
1.644740104675293 0.6598879098892212 0.0
4.150000095367432 0.3375000059604645 0.0
3.555316209793091 0.3343118131160736 0.0
2.9446933269500732 0.3401789665222168 0.0
1.6342840194702148 0.3290160894393921 0.0
1.0591840744018555 0.33908534049987793 0.0
2.9654481410980225 0.6753292679786682 0.0
3.5534629821777344 0.6835107207298279 0.0
4.153462886810303 0.6835107207298279 0.0
2.2139804363250732 0.6805098056793213 0.0
0.4914395809173584 0.6739721894264221 0.0
4.691666603088379 0.6916666626930237 0.0
4.691666603088379 0.3083333373069763 0.0
2.4872219562530518 0.7236665487289429 0.0
0.6240421533584595 0.2677222192287445 0.0
2.0697431564331055 0.2657754421234131 0.0
2.5389034748077393 0.26082900166511536 0.0
0.8147311806678772 0.7450684309005737 0.0
1.2897310256958008 0.743314266204834 0.0
1.8853894472122192 0.7450258731842041 0.0
4.382374286651611 0.23655959963798523 0.0
3.910269021987915 0.25668570399284363 0.0
3.1838724613189697 0.25397706031799316 0.0
1.398239254951477 0.2614254057407379 0.0
3.201760768890381 0.7385746240615845 0.0
3.8017609119415283 0.7385746240615845 0.0
4.39177942276001 0.7466779351234436 0.0
0.25301694869995117 0.7458874583244324 0.0
2.7258167266845703 0.7600342631340027 0.0
0.84163498878479 0.2263137847185135 0.0
0.22429518401622772 0.22429518401622772 0.0
2.7605957984924316 0.22504857182502747 0.0
1.8330284357070923 0.2150011658668518 0.0
0.2192869633436203 0.5323538780212402 0.0
4.7908525466918945 0.5038931369781494 0.0
2.466000556945801 0.5376454591751099 0.0
3.7061264514923096 0.17723728716373444 0.0
3.3929696083068848 0.20266839861869812 0.0
1.4905184507369995 0.7937026619911194 0.0
1.2104878425598145 0.20361483097076416 0.0
3.9895122051239014 0.7963851690292358 0.0
3.389512300491333 0.7963851690292358 0.0
0.5652223825454712 0.5070380568504333 0.0
0.44509074091911316 0.19716571271419525 0.0
2.1318352222442627 0.5042122602462769 0.0
1.548349142074585 0.4954715371131897 0.0
3.050636053085327 0.5004673004150391 0.0
0.9511125087738037 0.498258113861084 0.0
3.651650905609131 0.5045284628868103 0.0
4.248488903045654 0.4980509281158447 0.0
1.1537858247756958 0.49593159556388855 0.0
4.050199031829834 0.49993085861206055 0.0
3.464722156524658 0.509624183177948 0.0
1.749653697013855 0.5001751780509949 0.0
2.851828098297119 0.5057260394096375 0.0
2.359710216522217 0.1888567954301834 0.0
2.0499017238616943 0.8199846148490906 0.0
0.6430503129959106 0.8181284070014954 0.0
4.560274600982666 0.1724673956632614 0.0
4.55863094329834 0.8299665451049805 0.0
2.321284055709839 0.8242537379264832 0.0
4.815218925476074 0.8345447778701782 0.0
4.837246894836426 0.16590170562267303 0.0
0.9682294130325317 0.8331464529037476 0.0
1.730908751487732 0.827606201171875 0.0
4.220076560974121 0.17516615986824036 0.0
3.02066969871521 0.18326662480831146 0.0
1.5634372234344482 0.17044226825237274 0.0
3.035303831100464 0.8294908404350281 0.0
3.627507209777832 0.8360387086868286 0.0
4.2312469482421875 0.8315803408622742 0.0
4.618130683898926 0.5361976027488708 0.0
0.40311703085899353 0.8369210362434387 0.0
1.1473191976547241 0.8458209037780762 0.0
4.052680969238281 0.15417908132076263 0.0
2.020958423614502 0.6394158005714417 0.0
0.662188708782196 0.6447370648384094 0.0
4.5115838050842285 0.3538685142993927 0.0
1.0221220254898071 0.15309639275074005 0.0
0.3837882876396179 0.5515117049217224 0.0
3.548090934753418 0.15800617635250092 0.0
1.4348299503326416 0.6465393304824829 0.0
3.765170097351074 0.3534606993198395 0.0
3.3348300457000732 0.3534606993198395 0.0
1.2546738386154175 0.36384353041648865 0.0
3.945326089859009 0.636156439781189 0.0
3.3412928581237793 0.637225866317749 0.0
2.1904795169830322 0.17066854238510132 0.0
0.16392111778259277 0.38331863284111023 0.0
2.87723445892334 0.8265392184257507 0.0
4.8459792137146 0.6499902606010437 0.0
4.845625400543213 0.34837812185287476 0.0
2.771622896194458 0.38129922747612 0.0
4.5222978591918945 0.6578375697135925 0.0
2.604464530944824 0.8240283727645874 0.0
1.8544400930404663 0.3751189708709717 0.0
0.8566747903823853 0.38255012035369873 0.0
2.2932615280151367 0.5369129776954651 0.0
2.620572805404663 0.6496497392654419 0.0
0.7172287106513977 0.1490369737148285 0.0
0.1410960853099823 0.8303417563438416 0.0
1.7142322063446045 0.142862930893898 0.0
2.6314175128936768 0.14492936432361603 0.0
1.9832650423049927 0.1408119648694992 0.0
2.445650577545166 0.370038241147995 0.0
2.885042667388916 0.1455758661031723 0.0
0.13937503099441528 0.6546638011932373 0.0
0.9110832810401917 0.6349053978919983 0.0
3.088575839996338 0.3613528311252594 0.0
4.296638011932373 0.3563385307788849 0.0
1.1930090188980103 0.6355591416358948 0.0
1.788455843925476 0.6387236714363098 0.0
4.006990909576416 0.3644408583641052 0.0
1.4459187984466553 0.39242905378341675 0.0
4.354081153869629 0.6075709462165833 0.0
3.7540812492370605 0.6075709462165833 0.0
3.1591691970825195 0.6018876433372498 0.0
2.7615907192230225 0.6205627918243408 0.0
2.36276912689209 0.6735464930534363 0.0
1.3681535720825195 0.8630191683769226 0.0
3.8318464756011963 0.1369808316230774 0.0
3.275517463684082 0.10712132602930069 0.0
0.5630941987037659 0.12814241647720337 0.0
1.3237862586975098 0.10638008266687393 0.0
3.2733232975006104 0.8705052733421326 0.0
3.8733232021331787 0.8705052733421326 0.0
2.0396511554718018 0.38928428292274475 0.0
2.2168734073638916 0.8508136868476868 0.0
0.5163488388061523 0.3409615159034729 0.0
0.6547463536262512 0.3955095112323761 0.0
1.9480526447296143 0.8710126876831055 0.0
4.689375877380371 0.13700176775455475 0.0
4.698264122009277 0.8675068616867065 0.0
0.7578787803649902 0.8698469996452332 0.0
2.479548454284668 0.13692785799503326 0.0
2.4562506675720215 0.8735422492027283 0.0
2.171211004257202 0.3573116958141327 0.0
3.5117530822753906 0.853193998336792 0.0
4.107914924621582 0.8658969402313232 0.0
2.640726327896118 0.354434996843338 0.0
4.346996307373047 0.1279495507478714 0.0
0.3128283619880676 0.11246757209300995 0.0
0.136248379945755 0.12152919173240662 0.0
4.453908443450928 0.8629162907600403 0.0
1.6064813137054443 0.8679171800613403 0.0
0.3380795121192932 0.6626779437065125 0.0
0.5102446675300598 0.875635027885437 0.0
0.7425088882446289 0.2989330589771271 0.0
3.1349449157714844 0.10448489338159561 0.0
1.3287748098373413 0.6181886196136475 0.0
3.871795415878296 0.38215625286102295 0.0
3.229135036468506 0.3810797333717346 0.0
0.28971707820892334 0.8759857416152954 0.0
0.9214505553245544 0.11992674320936203 0.0
1.9219478368759155 0.6237660050392151 0.0
1.530794620513916 0.29603153467178345 0.0
3.072223663330078 0.7044162750244141 0.0
3.6722235679626465 0.7044162750244141 0.0
[...]
POINT_DATA 715
SCALARS Psi double
LOOKUP_TABLE default
0.0
0.0
1.0
1.0
1.0
1.0
1.0
1.0
1.0
1.0
1.0
1.0
1.0
1.0
1.0
1.0
1.0
1.0
1.0
1.0
1.0
1.0
1.0
1.0
1.0
1.0
1.0
1.0
1.0
1.0
1.0
1.0
1.0
1.0
1.0
1.0
1.0
1.0
1.0
1.0
1.0
1.0
1.0
1.0
1.0
1.0
1.0
1.0
1.0
1.0
1.0
1.0
1.0
0.918352395920169
0.8626110706685651
0.7606110622951208
0.6270451800821116
0.47496763192632463
0.3211603262334077
0.18355743512343095
0.07748106062715389
0.020711491422220722
0.0
0.0
0.0
0.0
0.0
0.0
0.0
0.0
0.0
0.0
0.0
0.0
0.0
0.0
0.0
0.0
0.0
0.0
0.0
0.0
0.0
0.0
0.0
0.0
0.0
0.0
0.0
0.0
0.0
0.0
0.0
0.0
0.0
0.0
0.0
0.0
0.0
0.0
0.0
0.0
0.0
0.0
-0.0
0.0
0.0
0.0
0.0
0.0
0.0
0.027341220494494643
0.1076737898644916
0.20919469260833123
0.31082398914200954
0.41240420910201997
0.5107558496736171
0.6025781673186661
0.6783998195931986
0.6416166482451139
0.5298079267526413
0.5405343765886594
0.5012306847657118
0.4945225529459855
0.46870236472748467
0.4696792721105609
0.5125291365358595
0.3202611621537679
0.3157061250449519
0.7720470814719295
0.7581829287366671
0.2329356397059718
0.22646032492493884
0.250487510653877
0.2315957055102861
0.2561694721912959
0.7881582573717018
0.7837769918313259
0.7811790288262623
0.7949150468363844
0.759684221292087
0.7808402668742176
0.18529306159985492
0.8521333359197858
0.15673393260278815
0.1505483969596733
0.1457530304450919
0.8811593879073366
0.8728396268191889
0.8717419565337791
0.09566443790543679
0.12647825101084845
0.1255085665399525
0.13809695971726826
0.8644988841997098
0.8578093081027649
0.8639355186064256
0.7933671894572861
0.8981023251133078
0.11077668381834968
0.1112409327637078
0.10010890953120183
0.08587645549011125
0.464466707740799
0.48340173035826584
0.574665636329338
0.04120227893694421
0.06377357623246152
0.9257768373231718
0.07069650736174904
0.9223036722700847
0.9231373701777937
0.4952313185076893
0.07112074831659877
0.516964068086957
0.49877799832378494
0.5059893004078627
0.5094500351818256
0.498864645138602
0.4845924482418723
0.5058083174728248
0.4896335466219938
0.5090553478871149
0.5057786126980778
0.5198964245107158
0.060192257286785095
0.952304997604276
0.9589682084126975
0.03909209551012772
0.9515715774149927
0.9587947624028443
0.9400235556558333
0.031494001312845805
0.9637168687100848
0.9544897142635197
0.04213347329471207
0.05375692421865551
0.0421656315614519
0.9641865307369445
0.95961821114046
0.956154807165305
0.5404228881594885
0.978592429622116
0.9703652760238523
0.031058797254495216
0.7306183566223046
0.7341577011122222
0.25137965120100453
0.036928320627977414
0.5291088864133412
0.029527941899234668
0.7411642783839725
0.25530167055203384
0.25853099745196145
0.28888773080797325
0.7102243884907095
0.7175868060578541
0.04660877972647756
0.29473689915815915
0.9636414285991123
0.7102574916096638
0.23844711478610245
0.3176954973611365
0.7376362581766146
0.9592312507050131
0.30389949356162455
0.3226306383529456
0.5721530002897128
0.7521790522729248
0.03719357038185498
0.8225479726678715
0.02659560942164495
0.028638621842491253
0.026272634453960015
0.3015560644906282
0.027172208858427332
0.5837226501600992
0.7304301231038308
0.27869279433087335
0.25805738058437555
0.7293443984984457
0.7265176878714472
0.2741281858173314
0.3314200742221932
0.661810816193406
0.6664495696407876
0.6685356288533522
0.7068478719708117
0.7844555064108113
0.9783410654720704
0.018168892612325245
0.0015510845151423915
0.021228882899613576
0.0008869502884232391
0.9807020363876734
0.9815841875136391
0.3290613196665929
0.9757964295171299
0.24948261071075248
0.33437574977849394
0.9850053224160429
0.020790864151422245
0.9779396747846272
0.9849327079805531
0.02425066021957561
0.9840517758470959
0.28034242319007724
0.9683928814663256
0.979219270521108
0.2775243209817496
0.005879965403638734
0.006014975622672358
0.022585210365290823
0.9765042557496669
0.9802028819996319
0.6940736167586089
0.9921648303989382
0.20004267374189635
0.0028687882225951217
0.6996883322529758
0.30095930754922795
0.3049933504682783
1.018749542867192
0.02180712290349678
0.7047405021750478
0.18487047726005973
0.8250687936750636
0.8118880697408536
0.8091287117177749
1.0063852441475754
0.6886470703904279
0.004153143953521144
0.99464578106941
0.9942997483566973
0.15499122061739
0.33188812146467195
0.18863150720911717
0.9959934972047144
0.003646874236231292
0.8655740535366445
0.29756767117296284
0.128174325359907
0.34083972490088893
0.01207760303634673
0.1619678048703595
0.9903533515128093
0.9901847637975689
0.13160503563701637
0.19514168902264586
-0.0018322445161959016
0.44647199025049367
-0.003809982596200618
0.4046969800595287
0.19838510421961736
-0.004084919561656606
0.000392142592868275
0.4119320312494967
0.43013681967317635
0.41422924529236527
0.590935917951457
0.5859678174385743
0.0030778374413934747
0.5534376233846536
0.0016248508779840433
0.693991044328046
0.13457146371102682
0.6020178606074128
1.0014261723163174
0.7985530048232045
0.1749207812372958
0.7968145478935269
0.1851573324808892
0.20418957340312754
0.8090593295686087
0.9986806545840733
0.0014492580715792754
0.13540126678728157
0.8603793318853441
0.1358038833756084
0.33115701472894543
0.6166481597525687
0.8228767389728542
0.11488498817804431
0.40898829598722575
0.41696820447836724
0.6088466644987233
0.5933446699124794
0.5883936518609598
0.02026983748339669
0.653816270848075
0.1397220704315458
0.8607198663428074
0.8561069471051094
0.5924451539179509
0.4096597860175755
0.423977405515606
0.003514032053654318
0.5861666615194225
0.8653999195548355
0.13873414828996883
1.0068890290555417
0.2026478746466228
0.5740490616973378
0.6576971345174117
0.4100556807399985
0.8590006762495243
0.580975673354457
0.9994848445326302
0.4562735260100768
0.9878531591541535
0.987012544503727
0.8907528329790231
0.8671240706921471
0.9579035027479289
0.006913042897239042
0.4238199287062555
0.7049487080036587
0.5759909929863798
0.6800556479325851
0.3753237314778792
0.10780090690191187
-0.0013817339756755146
0.44157905125861113
0.2113749497990877
0.8369744263716284
0.5605343088793715
0.4409493977820486
0.44572238966036243
0.8511553982335979
0.875618996722903
0.14074026601886028
0.1272615212229372
0.8633513239768601
0.415634481896792
0.999199318244804
0.14225996985487802
0.9007441029051793
0.9017743365642212
0.36248749117756607
0.9149997034669536
1.0039995026503168
0.119062459429964
0.14931393980035618
0.6710691438499875
0.32637345094070325
0.6716311334551283
0.6847188603117577
0.08750185492620925
0.6625300890400974
0.336685349974953
0.33584545959826984
0.006509993202563083
0.476801535972813
0.26498905113275434
0.7312722424308604
0.75927228748984
0.3425983372815961
0.8751094112553204
0.6606232428657545
0.656458289292566
0.6317021164704824
0.007786411619998705
0.00773116334702482
0.13873490497918642
0.8187038874090896
-0.003403809040690655
0.9158699652227497
0.9144893948830709
0.8431583376755668
-0.003753729033959984
-0.003258534190610907
0.19002665300488247
0.3463055764687126
-0.00021032846476309373
1.0005786265434047
0.3370194361584742
0.8827802477354161
1.000303530186072
0.8817876803620852
0.12416221412678581
1.0062981612681081
-0.0021007473107394377
0.1079684526589539
0.9952668105407277
-0.0006799813806885316
0.3189665183415963
0.0005843698269146824
0.6870040719941464
0.0037531372270782457
1.0023291660001374
1.0047917772804744
0.11403754548096169
0.49307914668454245
0.15744733859683085
0.9977754668361692
0.8846557672878517
0.9991319154956723
0.3366384376926381
0.9993247771055072
1.002789084914453
0.13437829225642886
0.09032586857525884
8.820154775983068e-05
0.28748767111829476
0.6486931981118971
0.585442514915585
0.4124161585391935
0.5593642509242759
1.004289813551059
0.2554978938598383
0.5696473723939979
1.0002600156319135
0.0001774218364092497
-0.0015367258873344584
0.19424090564330068
0.407005120108923
0.5797630418720213
-0.00197178759502706
0.9173176544157136
1.0057913829103662
0.8846820257594404
0.09314347953966796
0.9112045728861846
0.9037579356290298
0.6334485307494626
0.08217759810152211
0.892195330602682
-0.001998447175628555
0.2874103428211412
0.002604123051478342
0.93071952200039
0.06985715476285075
-0.0017134046970489608
0.5837573908240171
0.5398312145771039
1.0045524252384537
1.0154526508418031
1.0017681765188116
0.0012885162769394134
0.4348829538569637
0.6784856309954663
0.6847235684839812
0.6751952858672468
0.3240118796369132
0.3201433698449068
0.3338923542085059
0.9430511569687624
1.03540690945926
0.9973548340516375
0.9944895223919945
0.9628513887982577
0.6845839839933634
0.755321220204909
-0.00226832787459845
0.06485585918141479
0.7879357503998637
0.7023958355586455
0.24143564731552758
0.872655902241704
0.0883389435337784
0.07859944468511172
0.7169387023079979
0.6152105864248711
0.43444194743199027
0.9981917062450073
1.0015114724570848
0.767793781710674
0.10036161980665725
0.9296285190542438
0.2190691294811279
0.9513533509963997
0.05637081237641463
1.0004636152173767
0.0021328741631426898
0.3725551096819362
0.6113871991245114
0.3674957425015308
0.8331290756747857
0.04376167910093219
0.5918653622530453
0.3754430135306702
0.832338098420677
-0.0013609471484690638
-0.003794069516271078
0.18940961211677604
0.17889499041554488
0.05746453427102611
0.10916357496106215
0.9455117037251548
0.8374009346465551
0.16475544073270734
0.7999028912976687
0.20954717131978062
0.9067949540386672
0.8982683580864976
0.898029499712343
-0.005021328748157771
0.938837116665097
0.3585499527921185
0.22366084275474968
1.000668405835312
0.1743341292198998
0.5553765196145048
0.7098939815872883
0.605312135589298
0.640765447964313
0.04416484487555762
0.950117700680927
0.9487811070375595
0.05961295740984642
0.6962092207639423
-0.006473246373691085
1.0063777754113366
1.004063873812216
0.037995785130017515
0.04676895036150211
0.8921521318294867
0.2517861689734519
0.9459092634210905
0.4545958923922696
0.8580631132012655
-0.00040181830320422466
0.639001992771769
0.35736628805788423
0.36687757512526387
1.0014331655033921
-0.002339274499312431
0.5572788305757299
-0.0075418117415519586
0.41328511658442635
0.0680207922743444
-0.0011385511068561756
0.23839651457143485
0.6244105850130465
0.7202648703873604
0.7784082100099814
0.9478640659408726
0.049740839662973026
0.24883528755673126
0.19030816235985626
0.7689967010603583
1.0048486835888768
0.23307116199040484
0.07225211427736766
0.19131839830648137
0.05640534920365746
0.9263451460052871
0.048674129490091485
0.21277560186128489
0.780151638709999
0.7839064998721543
0.7947254111581123
0.40781156294513154
1.0058347212648058
0.37450091571761346
0.9151280973732047
-0.0014648431141729198
0.05223011105527708
0.04201456599860507
0.5965609771260116
0.07368062962516304
0.002102702629406448
0.059866093325415086
0.08154745132031285
0.4196910802845483
0.5595979737564137
0.03144807435855262
0.2019292517150136
-0.0018205658589286263
1.0002098983854089
0.9187292686078208
0.43330859005876654
0.5662829979928191
0.6221656551894582
0.9359277093608132
0.053117944385936804
0.0512061769171446
0.9982155428589627
0.03173450116974854
0.505999276768848
0.3333043275860594
0.11863823356363637
-0.0010743450449243388
0.7894255833118301
0.9493443354784978
0.14712057224546488
0.1294257576829122
0.8475887000696981
1.001848161324999
0.04540795209439195
0.9408261959148687
0.9400084237909718
0.44747128940123704
0.4427351494857153
1.0009999039193491
0.21444153968375448
0.3346233689257273
0.3779336101510154
0.00020861109727308625
0.965892999463201
0.9669380139170373
0.24445515230753503
0.5924433475214265
0.8256759672109799
0.8286211781259986
0.19093533983881114
0.8274670011442321
0.24064205594108534
0.8764759980321111
0.8752571049835114
0.6187396160918891
0.8909335973828043
0.6150870714077402
0.05370276013670593
0.9497674951683195
0.3946040593390676
0.6204588144004922
0.3789853610285107
-0.007842576005306348
0.31252996711133363
0.05676942768061112
-0.000771573852240278
0.5648374933924032
0.11865458097822935
0.22123457713348
0.08607549870062566
0.799862914596506
0.8719141934589187
0.9747109700423199
0.5820673977126785
0.0031879826778706787
0.4093097260785992
0.0779201536038838
0.9993173588052049
1.000390831274299
-0.0011523124288655663
0.05789962770787852
0.943430431454948
0.0003786241775946958
-0.004931969884873777
0.23888750531941738
0.7627531284679236
0.4367383515744388
1.0031026966704006
0.23308494569768073
0.8150746198941418
0.2010158537925749
0.8028130480184503
0.19583681599784894
0.9787394524663218
0.0017572513615819478
0.4150774214283719
1.0008385016766528
0.9580435814297914
0.04505933914850472

SCALARS Omega double
LOOKUP_TABLE default
-7.676011080471069
-1.2224501423243124
8.52393794423448
15.920552772676949
36.51810055389566
-6.478197026418822
2.4281150494167427
-4.457539001275605
-0.42153151279166456
1.9249630858519862
0.049006225231110964
-0.6448302701642132
0.4469141063029937
1.1345965592588068
0.1330023571861702
0.8352388641392186
0.4866788437443132
0.8099663951029447
1.629852907371193
-0.12104461748088348
1.4859151069134873
1.2931921893936273
-0.5221370204932572
0.49749975381949085
1.0733484784417044
1.0453902922829357
0.724130542093645
0.20403841492898134
0.43660665036390967
1.4113607163751538
1.1099628368631436
0.11737215507206364
1.3497165916883138
0.8566111137617288
0.42586096548417285
1.176168860508372
0.7706129103692337
0.3903688600848428
1.3760852737540334
0.6977301071840112
1.448952207068149
0.7360202184510924
0.42661049358535313
0.3732845114795391
0.9912776713720659
0.7698812444640726
2.268993421503373
0.4897442555406812
-0.5384991177495791
2.2828736045488887
0.9349096810927638
1.9743730463647957
9.660321185308463
-7.6224489629710215
0.42912062835763143
2.5388258552895895
1.4563624907340083
-0.058071280829598095
-0.8240172334269377
-2.31304960876318
-3.0367690720448755
-1.7848834917170608
-0.31699482981111193
-0.770374794742818
-1.1432362686093427
-0.07410174807983194
-0.7694718875703507
-0.3734482067240938
-1.0989469315937614
-0.8498414470883586
-0.3038685014789617
-0.7411854557650965
-0.45586357635443603
0.15898223215239035
-1.8294038398550052
-0.6367434524466646
0.45585032702605344
-1.5318832532458135
-0.5879494154874966
-0.2609719120715687
-1.152529043144645
-0.8303077299665644
-0.4302612493240187
-1.163107471592528
-0.9465947161978652
-1.5249039593112403
-0.11564249431449036
-0.5633947021242226
-1.069413821972101
-1.1878546771372949
-0.7847398188915903
0.7602912692886084
-1.4854316091595339
-1.2991670363844705
0.2530052826237108
-0.889970409373372
-1.1463306938560123
-0.13594158902247377
-0.5404141917904237
-1.5312709770756479
-1.528916139249159
-0.3342434009322918
-1.898814981880297
-0.47602189529024763
-2.055333655664625
-0.4976601845799076
-0.14060848535134893
-2.0677919768963346
-1.9113162747067511
-0.818500810388268
0.7512843843828252
-4.593177851271372
2.645784025750656
0.3121425503627672
-0.02474305068811334
-0.8568630749540217
1.6500172700790348
-5.887364809928078
-2.33734796501727
-42.61253791997901
-0.5081154029958074
0.4250154622497675
0.045481794033475395
-0.09317408495927816
-0.2301921249330732
-0.23091199577713334
0.16548446285915147
-0.3787407047033152
-1.4435618084567698
2.943279923087824
2.2145792661618446
-2.3944502274666317
-2.484284859703705
-2.1532728857163757
-2.3773761625034124
-1.8891805822696348
2.679257058349818
2.5792986070088366
2.4555380008415337
2.7471244819741654
2.312621472604309
2.628555162918545
-2.945512774397793
3.7125196074883045
-2.5950308008431087
-3.7042823704583028
-3.7270845479805743
5.219800908206437
4.03630775009349
3.8899353718719096
-4.575765670212018
-4.041034247189016
-4.07999364066722
-3.839056634384751
4.000025222643208
3.7177081257128175
3.986202984161349
1.9619445370346251
4.471243441515679
-3.971984568066591
-1.7025496138721259
-4.519181499067514
-4.877935393382829
-1.421074718303976
-0.1250437636271904
0.6441311518520911
-6.40207110688012
-5.476175018443966
4.945050668123402
-5.138940133634817
5.189892481549145
5.009662285921368
-1.2684799432036726
-4.900096811469234
0.16857416710454762
0.09804563280278654
0.06509970451739523
-0.14718156672244675
-0.01365368108649515
-0.15633525537516987
0.08760310069300384
-0.0972570952422402
0.053043539007549226
0.09885037574834672
0.18693172734923635
-5.684327044391123
5.5197697259362
7.353937337093536
-5.986641476754815
5.986490450989529
6.022596855354264
6.1557982165922525
-5.682279250462654
5.783044804756771
5.443474187379453
-5.72698180858807
-5.5405784639924445
-6.472498748771916
6.7055781660271165
5.859265461845414
5.912101153728968
0.21645434679763953
13.245562127961406
5.846493840736254
-5.76342264546995
1.9801096064302226
2.261121152115385
-2.053580475932491
-5.516436440365967
-2.343839372569782
-6.110436926551938
2.1313649014634337
-2.0954722913251493
-2.1369193197058918
-1.605626030490625
1.6192639315376898
1.8527853744558045
-5.69221317369995
0.08816182277422026
6.238072627378227
1.4932084508199042
-1.821114523440758
-1.4187320417972247
1.9211165365294125
5.742027316003397
-1.5508666515121259
-1.225155287200615
0.5899622281031174
2.259746462160156
-6.135597191127882
-1.8771915690488408
-6.357728748339258
-6.357953716253299
-6.594320302955663
-1.5562659354855841
-6.4334750239160154
-4.515270389494637
2.4208006599253826
-1.919347893070389
-2.071366548914753
2.2650148839107076
1.9254528126163122
-1.8800586024578196
-1.2220156486148837
1.1657415086017024
1.2925135402247443
1.3628868543219292
1.7756706200990975
2.7360419578099866
6.080054353519319
-6.789667171834433
-7.76647309057219
-6.6411486053391355
-8.610437379948085
6.6018486915755865
7.234833593929904
-1.2855665365268494
6.882912937815392
-0.9192549453806595
-1.0082841673628404
6.90180451326019
-5.746100114495521
8.27022530680614
6.051875823302772
-6.491077888834186
5.771019591125145
-1.7763117992849125
5.877206251216933
7.377115231082142
-1.7841546891012583
-8.828414989521669
-10.843775267838453
-8.803213029747749
6.892855270307076
6.1585457661655365
-1.0401689869727604
7.099969702869652
-2.165071973619647
-8.17068577599377
1.8333731709866188
-1.6082610385351597
-1.689382551479896
23.71388012594464
-6.286129335509879
1.75272601789707
-3.0794402077719
3.2762836888185376
2.9253780069795923
2.873301978670374
7.828520156701054
1.6111630224528757
-8.516680122711884
8.890620699778951
7.212254218212568
-1.4509211784578955
-1.243197301381463
-2.9607933947751803
7.123418182503724
-7.046619849159205
3.8648186832792626
-1.6401550189355099
-3.7164787577419185
-0.44593123780404564
-6.67941382014064
3.2829632535679054
7.905336855878569
5.631283889786027
-3.9167841899868585
-2.905919085979961
-10.16796200242267
-0.30395545775787886
-8.618949245757575
-1.4063637888621499
-2.7882743140988233
-8.957879559424423
-8.126105808611397
-0.6651803391456381
-0.4830416984047133
-0.669088863889567
0.7253605894138917
0.6924872783189295
-7.731825409726442
1.2537794632982828
-9.64471445105224
1.713885006263181
-3.8390170001005943
-4.132065148099709
10.150642869076226
2.7499909451596283
-2.929976102144502
2.8242827301226785
-3.0593806455163346
-2.7806585890643394
2.836572279753314
6.950394403517651
-6.798095483551909
-3.875864696417657
3.704882276950041
-3.8738303671140573
-1.1945324742601342
0.8063624962707119
5.180335676625952
-8.690399170043252
-0.5775324646319532
-0.6331350922838445
0.8468488127963638
0.7161502077100578
0.5755224193249143
-6.743440902558246
-8.020011302869719
-3.688286339948454
3.855964157112123
3.6553816324649318
0.8466999265739801
-0.6644663647691397
-0.5711677347782568
-9.491769743542937
0.6665336386446006
4.150552637564137
-3.7114515620180444
9.826873072589256
-2.715838341874112
-0.44292418797322236
0.2005201950255025
-0.6632245683669782
3.7296993230884783
0.23545320939407266
9.022167000418143
-0.2433811503562643
7.049192295068386
6.520121137768661
4.263597800429673
5.50530818201142
3.222756114984275
-8.310146053356506
-1.2937115364407716
1.687029576696806
0.5949432793393289
1.4746492466602994
-1.423784128170201
-4.38951036267905
-9.988337491949062
-0.4671323016295048
0.7362277324286859
3.3695810360323475
0.5536300274140246
-0.4450033058650618
-0.4216744908975152
5.485144406422957
4.8564497018179225
-3.8030698718772302
-3.8281855447464013
3.7101629686626865