# vtk DataFile Version 1.0
2D Simulation C++
ASCII
DATASET UNSTRUCTURED_GRID
FIELD FieldData 1
NODES 1 2 int
348 601

POINTS 348 double
0.0 0.5 0.0
0.0 1.0 0.0
2.0 1.0 0.0
2.0 0.5 0.0
0.0 0.528801679611206 0.0
0.0 0.564507782459259 0.0
0.0 0.6110168099403381 0.0
0.0 0.6721802353858948 0.0
0.0 0.7528436183929443 0.0
0.0 0.8593378663063049 0.0
0.16666941344738007 1.0 0.0
0.3333356976509094 1.0 0.0
0.5000020265579224 1.0 0.0
0.6666678786277771 1.0 0.0
0.8333337306976318 1.0 0.0
1.0 1.0 0.0
1.1666662693023682 1.0 0.0
1.3333321809768677 1.0 0.0
1.4999979734420776 1.0 0.0
1.6666642427444458 1.0 0.0
1.8333306312561035 1.0 0.0
2.0 0.8593378663063049 0.0
2.0 0.7528436183929443 0.0
2.0 0.6721802353858948 0.0
2.0 0.6110168099403381 0.0
2.0 0.564507782459259 0.0
2.0 0.528801679611206 0.0
0.029850948601961136 0.5 0.0
0.05970168858766556 0.5 0.0
0.08955242484807968 0.5 0.0
0.1194031685590744 0.5 0.0
0.14925390481948853 0.5 0.0
0.17910465598106384 0.5 0.0
0.20895539224147797 0.5 0.0
0.2388061285018921 0.5 0.0
0.2686568796634674 0.5 0.0
0.29850760102272034 0.5 0.0
0.32835835218429565 0.5 0.0
0.35820910334587097 0.5 0.0
0.3880598247051239 0.5 0.0
0.4179105758666992 0.5 0.0
0.44776129722595215 0.5 0.0
0.47761204838752747 0.5 0.0
0.5074627995491028 0.5 0.0
0.5373135209083557 0.5 0.0
0.5671642422676086 0.5 0.0
0.5970150232315063 0.5 0.0
0.6268657445907593 0.5 0.0
0.6567164659500122 0.5 0.0
0.6865672469139099 0.5 0.0
0.7164179682731628 0.5 0.0
0.7462686896324158 0.5 0.0
0.7761194705963135 0.5 0.0
0.8059701919555664 0.5 0.0
0.8358209133148193 0.5 0.0
0.865671694278717 0.5 0.0
0.89552241563797 0.5 0.0
0.9253731369972229 0.5 0.0
0.9552239179611206 0.5 0.0
0.9850746393203735 0.5 0.0
1.0149253606796265 0.5 0.0
1.0447760820388794 0.5 0.0
1.0746268033981323 0.5 0.0
1.1044776439666748 0.5 0.0
1.1343283653259277 0.5 0.0
1.1641790866851807 0.5 0.0
1.1940298080444336 0.5 0.0
1.2238805294036865 0.5 0.0
1.2537312507629395 0.5 0.0
1.2835819721221924 0.5 0.0
1.3134328126907349 0.5 0.0
1.3432835340499878 0.5 0.0
1.3731342554092407 0.5 0.0
1.4029849767684937 0.5 0.0
1.4328356981277466 0.5 0.0
1.4626864194869995 0.5 0.0
1.492537260055542 0.5 0.0
1.522387981414795 0.5 0.0
1.5522387027740479 0.5 0.0
1.5820894241333008 0.5 0.0
1.6119401454925537 0.5 0.0
1.6417908668518066 0.5 0.0
1.6716417074203491 0.5 0.0
1.701492428779602 0.5 0.0
1.731343150138855 0.5 0.0
1.761193871498108 0.5 0.0
1.7910445928573608 0.5 0.0
1.8208953142166138 0.5 0.0
1.8507460355758667 0.5 0.0
1.8805968761444092 0.5 0.0
1.910447597503662 0.5 0.0
1.940298318862915 0.5 0.0
1.970149040222168 0.5 0.0
1.7358819246292114 0.7499510645866394 0.0
0.2656642198562622 0.7486277222633362 0.0
0.49981194734573364 0.737183690071106 0.0
0.74151611328125 0.7359843254089355 0.0
0.9774143695831299 0.7371892929077148 0.0
1.201690912246704 0.7367381453514099 0.0
1.447761058807373 0.7383390665054321 0.0
1.8591958284378052 0.6421071290969849 0.0
0.14080412685871124 0.6421071290969849 0.0
1.588537573814392 0.6783608794212341 0.0
0.2553686201572418 0.6221352219581604 0.0
1.7466964721679688 0.6278358101844788 0.0
0.38199201226234436 0.6273008584976196 0.0
0.5013589859008789 0.6272794008255005 0.0
0.6207823157310486 0.6272526383399963 0.0
0.7401852607727051 0.627252459526062 0.0
0.8595882654190063 0.6272523999214172 0.0
0.9701492786407471 0.6212864518165588 0.0
1.0807102918624878 0.6272523999214172 0.0
1.2001131772994995 0.6272523999214172 0.0
1.3195161819458008 0.6272523999214172 0.0
1.4488563537597656 0.6310953497886658 0.0
1.9247323274612427 0.5706554055213928 0.0
0.07526770234107971 0.5706554055213928 0.0
1.5377081632614136 0.5910930037498474 0.0
1.6566967964172363 0.5934624075889587 0.0
1.8074009418487549 0.5708622932434082 0.0
0.1940300166606903 0.5737577676773071 0.0
1.0286364555358887 0.5665481686592102 0.0
1.14803946018219 0.5665481686592102 0.0
0.9116620421409607 0.5665481686592102 0.0
1.2674424648284912 0.5665481686592102 0.0
0.7922590970993042 0.5665481686592102 0.0
0.6728560328483582 0.5665482878684998 0.0
0.5534531474113464 0.5665481686592102 0.0
1.3892061710357666 0.5727682709693909 0.0
0.43402159214019775 0.5665869116783142 0.0
0.3146642744541168 0.5667200088500977 0.0
1.8656742572784424 0.5607567429542542 0.0
0.1343258023262024 0.5607567429542542 0.0
1.5970147848129272 0.5642029047012329 0.0
1.8783670663833618 0.7786769866943359 0.0
0.12163297086954117 0.7786769866943359 0.0
1.7164177894592285 0.562579333782196 0.0
1.4776118993759155 0.5620538592338562 0.0
1.5857784748077393 0.867691159248352 0.0
0.25373148918151855 0.5588531494140625 0.0
0.9701492786407471 0.5582930445671082 0.0
1.0895521640777588 0.5582930445671082 0.0
0.8507462739944458 0.5582930445671082 0.0
1.20895516872406 0.5582930445671082 0.0
0.7313433289527893 0.5582930445671082 0.0
1.3283581733703613 0.5582930445671082 0.0
0.6119403839111328 0.5582930445671082 0.0
0.49253740906715393 0.5582930445671082 0.0
0.37313446402549744 0.5582956075668335 0.0
0.36864349246025085 0.7376502752304077 0.0
0.602456271648407 0.7355343103408813 0.0
0.8441241383552551 0.7366551756858826 0.0
1.3355978727340698 0.7366551160812378 0.0
1.0895521640777588 0.7378703355789185 0.0
0.07051979005336761 0.6486480832099915 0.0
1.9294801950454712 0.6486480832099915 0.0
1.5086064338684082 0.6743985414505005 0.0
1.6785967350006104 0.6649783849716187 0.0
1.9543375968933105 0.5452249050140381 0.0
0.04566239193081856 0.5452249050140381 0.0
1.6567095518112183 0.5496091842651367 0.0
1.53738272190094 0.5491842031478882 0.0
0.91306072473526 0.8965699672698975 0.0
1.7782752513885498 0.5446287989616394 0.0
1.4163299798965454 0.5447981357574463 0.0
0.4287482798099518 0.8945969939231873 0.0
1.2610714435577393 0.8950135707855225 0.0
0.4313095211982727 0.6832783222198486 0.0
0.31561949849128723 0.6858259439468384 0.0
1.029850721359253 0.6781684160232544 0.0
0.9082015752792358 0.6848641633987427 0.0
1.1492537260055542 0.6781684160232544 0.0
0.7886138558387756 0.678956151008606 0.0
1.2709345817565918 0.684736430644989 0.0
0.6685023903846741 0.6868807673454285 0.0
1.4007169008255005 0.6702371835708618 0.0
0.5483440160751343 0.6792802214622498 0.0
0.19808045029640198 0.6887137293815613 0.0
1.797759771347046 0.6853783130645752 0.0
0.6811949610710144 0.8757594227790833 0.0
1.0189321041107178 0.8474968671798706 0.0
0.7922950983047485 0.8446238040924072 0.0
1.3765455484390259 0.8590760827064514 0.0
1.1571698188781738 0.8478953838348389 0.0
1.8954496383666992 0.5359624624252319 0.0
1.8360060453414917 0.5359931588172913 0.0
0.10455036163330078 0.5359624624252319 0.0
0.16417928040027618 0.5353734493255615 0.0
0.5530290007591248 0.8422092199325562 0.0
0.2832632064819336 0.5367912650108337 0.0
0.22469767928123474 0.5394234657287598 0.0
0.9405550956726074 0.5357381105422974 0.0
0.9997434020042419 0.5357381105422974 0.0
1.0600273609161377 0.5365630984306335 0.0
1.1191463470458984 0.5357381105422974 0.0
0.8802711367607117 0.5365630984306335 0.0
0.8211521506309509 0.5357381105422974 0.0
1.2385493516921997 0.5357381105422974 0.0
1.179430365562439 0.5365630984306335 0.0
0.7608681321144104 0.5365630984306335 0.0
0.7017492055892944 0.5357381105422974 0.0
1.2988333702087402 0.5365630984306335 0.0
1.357560396194458 0.5390686392784119 0.0
0.5823462605476379 0.5357381105422974 0.0
0.6414651870727539 0.5365630984306335 0.0
0.5220622420310974 0.5365630984306335 0.0
0.4629422128200531 0.535739541053772 0.0
0.3435409665107727 0.5357455015182495 0.0
0.4026572108268738 0.5365669131278992 0.0
0.21006634831428528 0.8590372204780579 0.0
1.7943172454833984 0.8627070188522339 0.0
0.06134982034564018 0.7191494703292847 0.0
1.938650131225586 0.7191494703292847 0.0
1.634666085243225 0.7584379315376282 0.0
0.3355695903301239 0.8387951850891113 0.0
1.537941336631775 0.7633647918701172 0.0
1.9670078754425049 0.574067234992981 0.0
0.032992132008075714 0.574067234992981 0.0
1.6862140893936157 0.5314788222312927 0.0
1.6272135972976685 0.5317342281341553 0.0
1.5077245235443115 0.5309156775474548 0.0
1.5668202638626099 0.5316618084907532 0.0
1.7466963529586792 0.5298213958740234 0.0
1.4473658800125122 0.5297333002090454 0.0
1.804386019706726 0.5275400876998901 0.0
1.9283779859542847 0.5282225012779236 0.0
1.8656879663467407 0.5267112255096436 0.0
0.13432854413986206 0.5271331071853638 0.0
0.07162196189165115 0.5282225012779236 0.0
0.25373148918151855 0.527070939540863 0.0
0.19419340789318085 0.5297109484672546 0.0
0.31349387764930725 0.5272363424301147 0.0
0.37313446402549744 0.5270199179649353 0.0
0.4329495429992676 0.5274069309234619 0.0
0.49253740906715393 0.5270196795463562 0.0
0.5523557066917419 0.5274024605751038 0.0
1.3898069858551025 0.5277745127677917 0.0
1.3283581733703613 0.5270196795463562 0.0
0.6119403839111328 0.5270196795463562 0.0
1.2685397863388062 0.5274024605751038 0.0
0.6717586517333984 0.5274024605751038 0.0
0.7313433289527893 0.5270196795463562 0.0
1.20895516872406 0.5270196795463562 0.0
0.7911616563796997 0.5274024605751038 0.0
0.8507462739944458 0.5270196795463562 0.0
1.1491369009017944 0.5274024605751038 0.0
1.0895521640777588 0.5270196795463562 0.0
0.9105646014213562 0.5274024605751038 0.0
0.9701492786407471 0.5270196795463562 0.0
1.0297338962554932 0.5274024605751038 0.0
1.4776118993759155 0.5259945392608643 0.0
1.597015619277954 0.5255197882652283 0.0
1.7164177894592285 0.525999903678894 0.0
1.6834615468978882 0.8477573990821838 0.0
1.5822722911834717 0.6086509227752686 0.0
0.20459823310375214 0.6270732283592224 0.0
1.8037469387054443 0.6209055185317993 0.0
0.09990309923887253 0.8589919805526733 0.0
1.9000968933105469 0.8589919805526733 0.0
1.75603187084198 0.5789161324501038 0.0
0.10896337777376175 0.5982794761657715 0.0
1.8910366296768188 0.5982794761657715 0.0
1.4950518608093262 0.605266273021698 0.0
1.7049394845962524 0.6007562279701233 0.0
1.4387125968933105 0.5775743722915649 0.0
1.489302158355713 0.851039469242096 0.0
0.15732239186763763 0.5961292386054993 0.0
1.8436260223388672 0.5944437384605408 0.0
0.4399496018886566 0.6259797215461731 0.0
1.022565245628357 0.6257523894309998 0.0
[...]
POINT_DATA 348
SCALARS Psi double
LOOKUP_TABLE default
1.087898474508491
1.0
1.0
1.076668469260456
1.0877880062334302
1.0875451104751874
1.089146808446431
1.0938728055795366
1.1033510760300826
1.1418217491797535
1.0
1.0
1.0
1.0
1.0
1.0
1.0
1.0
1.0
1.0
1.0
1.1342685463957312
1.0942751242429563
1.0844750354860413
1.0798819113757931
1.077714553802015
1.076859054195814
1.0879812890927982
1.0867118737230577
1.0848223047301684
1.0824207999643924
1.0794798105890744
1.0760237479574446
1.0721218737371168
1.0678672938813631
1.0633834607914094
1.0587584764276043
1.054092062079485
1.049463046898327
1.0449565223459745
1.0406243934044441
1.0364944248452859
1.0325996192985436
1.0289672844803035
1.0256109400136124
1.0225183845246608
1.0196944968398844
1.0171381906878252
1.0148448620531898
1.012790584430812
1.010968779202739
1.0093691715796957
1.0079826246305148
1.0067887562820292
1.0057803759938433
1.004949402873179
1.0042890028147402
1.0037866646604412
1.0034382993377606
1.0032411995846604
1.0031934442825765
1.0032914481968431
1.0035346311557058
1.0039285742612478
1.0044762170765276
1.0051807819153677
1.0060462357628186
1.0070859529231129
1.0083062724799485
1.0097144700180887
1.0113162605412154
1.013134552859461
1.0151740580473285
1.0174309700616275
1.0199346785871923
1.0226764931010446
1.0256555034957702
1.028872214853169
1.0323240682604853
1.0359903891933093
1.0398395378004865
1.043833844034221
1.047925536351865
1.0520543032623773
1.0561439083013089
1.0601072579971185
1.0638381740237652
1.0672402127794909
1.0702047587144727
1.0726291927409797
1.0744756476903405
1.0757491274616062
1.076461344439621
1.0467867111124989
1.0518854975022003
1.0201199545735504
1.005808648849893
1.0016730890836893
1.0036439487236313
1.0139159671469908
1.073368257088256
1.0821127466422737
1.0311074484700464
1.0635343109968383
1.0566896057951787
1.042553003601494
1.026824153515196
1.0156243624004955
1.0084497788168576
1.004363358764975
1.0028457867878804
1.0030421303558472
1.0054010944180947
1.0102988519045
1.019045707151559
1.0762815970246307
1.0856765450482966
1.0292513434409647
1.044529511703798
1.0659083918909986
1.074034191610553
1.0030690600314414
1.0045811566420908
1.003818930558794
1.0086117114415274
1.007031564639233
1.0132384594518546
1.023204180453626
1.0157540904078008
1.0374860202079474
1.055478417977002
1.0719808302901608
1.0811616401296582
1.0372069616151773
1.0782438794773828
1.0863580194905407
1.0536728172821848
1.0235734735274238
1.013076869167611
1.0652546100998437
1.003197052491065
1.0035798882109912
1.0051657431454615
1.0063427130130893
1.0098477968714876
1.0118732770640257
1.0179114426734193
1.030094746622598
1.046479489255456
1.0356947694556848
1.0123546184506977
1.0031387427065688
1.0079927420571844
1.0019375177925547
1.0902638557396809
1.0807843178759933
1.0226367967589287
1.0445797931567233
1.0766486529962744
1.086929774233104
1.0454993564095296
1.0301804044250862
1.0004324779480815
1.062223399499606
1.0182593122396726
1.0105238643749277
1.00148019109661
1.0321300518475585
1.0494026491812358
1.0022866924363925
1.0028325832580227
1.0035487593450139
1.0056184817260752
1.0068375194769779
1.0105844966955053
1.014016969350749
1.019584624629494
1.0716959174701604
1.0635402041428286
1.0033690888774065
1.000551528930911
1.0019091530122757
1.0044737988341466
1.001177079485795
1.0738826786575615
1.0689326686898677
1.0837058532128119
1.0778577788683696
1.0080518454145442
1.0609556648071972
1.0698224662077942
1.0035449095713362
1.0031568981318018
1.0033514355891586
1.0041283491796964
1.0045480023776738
1.0061844092104226
1.007584955948784
1.005537017804569
1.0085721333298936
1.0117220718981317
1.010403315729308
1.0139270178359148
1.0208731770550734
1.0158334216521803
1.0270743050530595
1.034252173236264
1.05150542920082
1.0425620823657806
1.0395567065619378
1.036211233941933
1.098043592005669
1.0884747660001326
1.030222629370722
1.0266177484478594
1.0193764487929668
1.077798180628094
1.0869960836204113
1.0498144934707996
1.0417081050634245
1.0271153359200307
1.0339262736343335
1.0581499446448712
1.0211277923948536
1.0654241818219012
1.075478572053054
1.0715896555290587
1.0810291667589476
1.0859076136209636
1.065560421407917
1.0740717861681142
1.0562842958601575
1.0470323712855598
1.0383626599239866
1.0306044752232202
1.023898083927596
1.0163204858241033
1.0121235364444319
1.0182792587143696
1.0089275203872938
1.013700677887378
1.0100775781431504
1.0065003903049927
1.0073102832524004
1.005304971075295
1.0047733073828469
1.0036843055262004
1.0039874088678749
1.0032948803196804
1.0031996899498845
1.0240373575933805
1.037782711161713
1.0540276656030514
1.0247321279268102
1.034023728486852
1.0720977954089583
1.065417477671473
1.0766798885034516
1.0694555700121315
1.0590427058707468
1.084187003861207
1.0751055971297119
1.0242340643971506
1.051239823879461
1.0196470454310138
1.0091319940576517
1.0790605294290514
1.070403240161447
1.0344440063523752
1.0027017717392244
1.0033116066813665
1.0039833364235267
1.0061442472555124
1.0075903525116303
1.011737989721523
1.0131967722081223
1.0208948219871588
1.0530712580127357
1.0269044500837587
1.0769456125893853
1.0853521982274776
1.049032720078738
1.0329780828196704
1.0415769128272179
1.0531510677155427
1.0023830257391575
1.0026693188188651
1.0039418911469107
1.0050219755513903
1.0079147626448903
1.0097441058580428
1.0144741786252727
1.0255108295598898
1.0411378679677206
1.1079720339984693
1.0992860060375886
1.0766662395521611
1.087955370494163
1.0607630654122182
1.00297348704169
1.0032515757542124
1.0031706622528762
1.0612209313544925
1.0037527086950222
1.0043770222599526
1.0056003462748155
1.0053642799025904
1.006900865370334
1.0083446693341092
1.0107080771279258
1.0101583380991188
1.0127990591856322
1.0154620518540995
1.0192794234407603
1.0265465388461883
1.0680748969629572
1.032071649925227
1.0420100803957548
1.048885479025921
1.0174362726719892
1.0457873258336747
1.030481826852362
1.03864716578243
1.0014570165827363
1.0217583110324806
1.0389659103891524
1.0837777927949022
1.074404664265845
1.000256912178834
1.028206227631828
1.0692428658369724
1.0781093475420072
1.0039401956911707
1.0875215093216077
1.077133106772234
1.0872136409939068
1.0783251134876093
1.0690638753668882
1.0624278431783225
1.0620060165785674
1.018597517002418
1.0010538007733585
1.016345308206448
1.006591681758946
1.0761908357912813
1.0872104888655016
1.052818722283739
1.0469710938934431

SCALARS Omega double
LOOKUP_TABLE default
4.100276591325643
-10.327730795512519
-14.268649563524198
0.13217857055184967
4.49251542645356
-2.683794553390498
-4.473557660697999
3.542292223051209
1.031478153524542
20.842645460341362
-8.188675201235261
-0.4094725224486665
-0.8985275656021847
-0.2342139597577861
-0.11369097906707815
-0.0306121116040831
-0.11116900967939064
-0.1864350416050088
-0.6569892802328594
-0.6110339258143369
-6.11574538513724
17.943670585051468
3.512463678246043
-1.037908127009574
0.14534828367722882
0.03351225768752991
-0.3220314024267329
2.111361729778257
1.091836779129
0.714302174055339
0.5849518485481364
0.532723942479346
0.5070780229774314
0.47819019535925944
0.4415368869810493
0.3974117806146663
0.3477326855839735
0.29624639575126843
0.24497892035065405
0.19618313362204462
0.15080900307753892
0.10952048243290866
0.07261347370599673
0.04033345380230461
0.012569703239644361
-0.011155351060191783
-0.0310818194639625
-0.047524590314430674
-0.060811397529289025
-0.071541324742509
-0.08001355224752989
-0.08658310673624608
-0.09151389745133466
-0.09520530108802248
-0.09785149295451488
-0.09967300282387233
-0.10081314000305137
-0.1014638326924566
-0.10170958628309404
-0.1016268683373838
-0.10124796050264155
-0.10059290906000051
-0.09964829232249003
-0.09834303125416
-0.09661227972381793
-0.09434272356192082
-0.09142625816430057
-0.08763222632704153
-0.08279843073370974
-0.07668844490836878
-0.06909527033847132
-0.05954731700683276
-0.04780290298522444
-0.03366497364093405
-0.01647275148739247
0.003910499319406296
0.027743081890918446
0.05530912070507021
0.08677693353028301
0.1220369050550279
0.1605761314779601
0.201689605145857
0.24401350586967221
0.2859350889464014
0.3247869460697417
0.3576013701493736
0.37954715498192715
0.38524800496531236
0.37065562200229335
0.3300023908908368
0.26103410296643215
0.1651091931617712
0.06635078649080939
0.3151066786742126
0.3393627792190187
-0.11646412746776451
-0.13091185659402346
-0.10570544234666501
-0.11366535230617343
-0.12385496955402506
0.7178328076069334
0.8448250621237473
0.04691930015622161
0.4698816282249603
0.4081247472100209
0.16694960764005928
0.002897547330086648
-0.07395212607933574
-0.10007944116951947
-0.10519634396684013
-0.10385548562013482
-0.10230780726992825
-0.0984363172219629
-0.08460653262433945
-0.040685624397361696
0.3065098107118197
0.09488991771429367
0.05186250855935469
0.21730105441605477
0.43991741012327895
0.5280590909263618
-0.10168073699786627
-0.0971510522791405
-0.10234065506671179
-0.08372762071905782
-0.09659159872010693
-0.07320444363936367
-0.011171932480530871
-0.048931336153279825
0.1162785067838106
0.32074728078444104
0.40938443050127515
0.4908519705204592
0.13352109546207483
2.2490601200212494
2.527400928638905
0.3156010862203261
0.007244176913391571
-0.31878313556869786
0.43428948391498057
-0.10231092580924406
-0.09981692767247186
-0.10036161151639254
-0.09157790121220614
-0.08711259239766288
-0.0687306210789249
-0.046554572573642976
0.04633405912637832
0.2135102028930904
0.04064205044306691
-0.14344316634195317
-0.11680355778779267
-0.12342029431869997
-0.10619346685071321
0.9676272328217488
0.5747828402038443
-0.03102886945179807
0.23799457143012845
0.14049951447211362
0.45038740918078657
0.22190937390979557
0.06523625368613836
-0.09857906671163517
0.38752322425322544
-0.030069434208513143
-0.4188839882434393
-0.15081365800782737
0.032554704005392766
0.27537492142070935
-0.10461616306398255
-0.10807518458653892
-0.10488149110335375
-0.11268902239698657
-0.10497213952896865
-0.11310599805982127
-0.08190653108124027
-0.07324263393358202
0.8361155033404277
0.6923071888250684
-0.20088340172876012
-0.09796264622114309
-0.14249513316938217
-0.20891314014864906
-0.11464430777345495
0.32160350026037904
0.3990826750413668
0.5432661527993405
0.5181516061275337
-0.3016400705073365
0.376258867149895
0.4676878474160553
-0.10188407577203286
-0.10167070306979852
-0.10038421037943451
-0.09788439967662882
-0.10072930272384754
-0.09731626857513266
-0.08620622795555836
-0.09350530283723636
-0.09023276510793656
-0.07756313128381082
-0.0742698113979713
-0.0562739748146142
-0.02430827525875985
-0.05649859168765349
0.023020098419929507
0.08697762312184995
0.26890621595643904
0.17062922366812924
-0.6191909295733885
-0.5147470842018218
2.329445225089538
1.9777754326477366
-0.011509735391270521
-0.2381694070910544
-0.12062838991740407
0.16690677658849054
-1.0217322041888142
0.2655262804133448
0.18017280056439638
0.0392061473497333
0.10148348541130607
0.346625147031241
-0.008566668758064545
0.3920916326130634
0.21860644188477282
0.36523518415089234
0.5338230402123022
0.7124939981425227
0.42341547290483816
0.49727144015457186
0.32227161895648554
0.21880357148507953
0.1275221874768814
0.05381235972924811
-0.0016606516628814734
-0.04142765019597671
-0.06554031090389557
-0.0412224202547311
-0.08056138210841997
-0.06760899282397065
-0.08431586976413354
-0.09007820805103124
-0.0940310444611252
-0.09919241033303786
-0.09582606785389038
-0.09921886219596737
-0.10139610424727367
-0.10184407537392653
-0.10108332253316743
0.013962251042666839
0.13979943924524035
0.30760252642663344
-0.2638912732511693
0.09725913348827707
0.6218180596284967
0.5337798652098867
2.903995377746916
2.155648207193527
0.38564602079166194
0.43159595950353874
0.4734073822566693
0.0051617581470803225
0.3062370625968073
-0.024410384702827012
-0.2810106960426924
0.5921227818568183
0.5085895250468654
0.0755262932796264
-0.10322296855196166
-0.10472893888854119
-0.10082993789549576
-0.10385718285475216
-0.09299651525129113
-0.08998797059948008
-0.07147385136471707
-0.04182883876475848
0.3101615019356095
0.03413599053158887
1.2523254612512866
1.47857482275582
0.2651621004175703
0.09036934048333378
0.18033095480112038
0.4136173790052368
-0.1053719666598954
-0.10433475507129017
-0.11016426574016354
-0.10444550613901925
-0.11200115981907321
-0.09772746933849212
-0.09915262592014848
-0.028490043155135345
0.1442310634175298
5.598342302568172
5.403331021594517
-0.012855761274720596
2.0975690306688426
0.4888528703109549
-0.10265928934650315
-0.10312383596229133
-0.10135194568862486
0.40199689972053637
-0.0998380550263722
-0.10270297609775891
-0.10100566851649694
-0.09587048372163569
-0.0912424788371107
-0.09487819269188814
-0.086722869508297
-0.07944071576959379
-0.06713690848659866
-0.06531830821360696
-0.0422861782517842
0.010999425554475677
0.48867830818809976
0.060394918558013246
0.16287202202732437
0.24370900194154346
-0.069021170284448
0.22262509032082403
0.06938332819016439
0.14914127621366044
-0.10985028246979674
-0.16829937851684226
0.15224910609403647
0.3821709177459805
0.3751898652640585
-0.08900149633945652
0.03241088187200601
0.44000536702739906
0.5321896093582412
-0.13409298096087333
0.46689768366683154
0.011219789300212776
-0.5101373601491154
0.3408516063860734
1.0203185730468303
0.9271598518052718
0.3733238667013986
-0.026222501598171414
-0.17256911031074834
-0.052967204024919126
-0.166172954694691
0.1185608032072189
1.248211826198957
0.5729328675583939
-1.2167721125816384

SCALARS Vx_analytic double
LOOKUP_TABLE default
4.100276591325643
-10.327730795512519
-14.268649563524198
0.1321063796274876
4.49251542645356
-2.683794553390498
-4.473557660697999
3.542292223051209
1.031478153524542
20.842645460341362
-8.188675201235261
-0.4094725224486665
-0.8985275656021847
-0.2342139597577861
-0.11369097906707815
-0.0306121116040831
-0.11116900967939064
-0.1864350416050088
-0.6569892802328592
-0.6110339258143369
-6.11574538513724
17.943670585051468
3.5132646959024267
-1.0157705221651947
0.14755553990447484
0.03451969898916947
-0.32007619903748297
2.111361729778257
1.091836779129
0.714302174055339
0.5849518485481364
0.532723942479346
0.5070780229774314
0.47819019535925944
0.4415368869810493
0.3974117806146663
0.3477326855839735
0.29624639575126843
0.24497892035065405
0.19618313362204462
0.15080900307753892
0.10952048243290866
0.07261347370599673
0.04033345380230461
0.012569703239644361
-0.011155351060191783
-0.0310818194639625
-0.047524590314430674
-0.060811397529289025
-0.071541324742509
-0.08001355224752989
-0.08658310673624608
-0.09151389745133466
-0.09520530108802248
-0.09785149295451488
-0.09967300282387233
-0.10081314000305137
-0.1014638326924566
-0.10170958628309404
-0.1016268683373838
-0.10124782721661726
-0.10059294161333049
-0.09964845462833197
-0.09834350148945081
-0.0966131209181848
-0.09434451833090202
-0.09142861833150642
-0.08763597008049691
-0.08280334244857435
-0.07669661347403876
-0.06910496104483192
-0.05956144822982926
-0.04782298727543905
-0.033672460151986425
-0.016485391227662
0.0038884097150429075
0.027721518570794842
0.055297474281936244
0.08676828004953528
0.12202034401484382
0.1605745306744211
0.20170954653332782
0.2440664345920929
0.28600158387724833
0.32489654475649243
0.3577128694306622
0.37972785697703476
0.38560071594766976
0.37102831610210424
0.33040741313259864
0.2613683054628117
0.1653518506290185
0.06630766751870372
0.3072890281839821
0.33717061448311886
-0.11573714653467246
-0.13079943939897096
-0.10570535502925058
-0.11372780223206334
-0.12456353023116644
0.7269997387922724
0.8347617254014065
0.04600727054716542
0.4679910115650422
0.4105073469910044
0.16692146297352944
0.0031366689793999687
-0.07378379822611515
-0.10001567363552667
-0.10518127199623103
-0.10385296453271022
-0.10231052772004677
-0.09846832137092967
-0.08473012822595814
-0.04101671778140136
0.3086317366572384
0.10164156810895594
0.051537871258803054
0.21754434344506413
0.4422804079708268
0.5270414712556449
-0.10168036615220788
-0.09715932286157634
-0.10233728423971447
-0.08377000638109017
-0.09657556210691838
-0.07315791388232805
-0.011102327424326075
-0.049075079101675564
0.11625277780692894
0.320258229959412
0.4115959586818426
0.49215553309907684
0.13340677192795564
2.256243746587604
2.4658842147926388
0.31620104484479544
0.007045941931702292
-0.31995283273449787
0.4335301034466956
-0.10230954728781656
-0.09981883987326609
-0.10035371764760306
-0.09159326942676853
-0.08708221507893028
-0.06878611507125232
-0.04648330315487272
0.046411187144371334
0.21338885470162736
0.04151052173489417
-0.14299730787473794
-0.1167728862664718
-0.12376119507418033
-0.1062044598608616
0.8926160214857113
0.5831067610053794
-0.031782754623389343
0.23793720674812727
0.14188665748020432
0.4592261060585732
0.22203848106957547
0.06507796714673747
-0.09857956821516771
0.3884750777676567
-0.03015694221293685
-0.4175139089809277
-0.150896916900713
0.032833074958379796
0.2746372744253229
-0.10461649272850074
-0.10806434610597303
-0.10490610173068457
-0.1126337188860677
-0.10508948338770459
-0.11291175036326208
-0.08229300609741494
-0.07287632466370154
0.8282370826396697
0.6979119990876315
-0.2006682245533743
-0.09797116720211708
-0.14243482971068713
-0.20985491969864933
-0.11468425994510466
0.3229199860759904
0.4004661603956853
0.5455847678981969
0.5182087427594213
-0.3007930966927881
0.3759623337053858
0.4672919894649951
-0.10188333002403495
-0.1016702068839638
-0.10038502849190648
-0.09788823814864009
-0.1007276475513749
-0.09731253680823343
-0.08622901507111932
-0.09351735511052285
-0.09022641027933483
-0.07755275539790313
-0.07432039389868349
-0.0563509971772601
-0.024297350960248505
-0.05648791916113247
0.023012124349969052
0.0869455981620644
0.2687318304323552
0.17053225432382663
-0.6002055556068356
-0.5404004019024321
2.3324891609990477
1.995213323698314
-0.014257358290930316
-0.23526584142761603
-0.12196078558528205
0.168895809111089
-1.0064285288740507
0.2657657158599292
0.18013718708930293
0.03905086612144674
0.10135564273858948
0.34736219763332193
-0.008684319232774325
0.39328239639643675
0.2197150068356291
0.36633678588787927
0.5347506766608056
0.7167242441374675
0.4231117938190422
0.4970539901897984
0.3221079646404098
0.21875178341373883
0.12751921397916924
0.053843932224452405
-0.0016322891661670873
-0.041511911301309296
-0.06558852448207902
-0.04119317830203337
-0.08058918572674355
-0.06759113243439015
-0.0843033469433868
-0.09009150126928031
-0.09402489151116789
-0.09918920881379514
-0.09583184533277282
-0.09922064567211072
-0.10139490922507421
-0.10184360977331426
-0.10108341507232199
0.013839357112551718
0.13970756585498315
0.307978483121165
-0.2698286970713998
0.09687450550117167
0.6181302600864484
0.5377275131747525
2.8036412451966415
1.9883210013184809
0.3871698792344549
0.4280201239347559
0.47752159430236374
0.004780603012138368
0.3069585323339097
-0.024649601233306055
-0.2824246630023046
0.5891893005154551
0.5124021152234045
0.07569952330961001
-0.10322246003103498
-0.10472312694621248
-0.10084273171406476
-0.10382419481671067
-0.09306743155730986
-0.08988417089548348
-0.07166214293816611
-0.04160908256037326
0.3094423826897715
0.03395512419515573
1.265000153509338
1.4602339632671684
0.2655939522289494
0.09019050077504702
0.1803862360344275
0.414855910469711
-0.10536896211537707
-0.10433929983814248
-0.11013665859592146
-0.10448760276388036
-0.11189194699840546
-0.09790551159138791
-0.09883423306563686
-0.028031204938549187
0.14415472580352415
5.320999423505423
5.209113620663365
-0.012093327438786125
2.0940044610596087
0.485930361703178
-0.10265782107286092
-0.103121434150023
-0.10135356117112582
0.40109114387516354
-0.09984342148278787
-0.10269515326345294
-0.10099102598609618
-0.09589104221961546
-0.09127527579904882
-0.09484443723999994
-0.08667060489079462
-0.07952305240216623
-0.06724861011029182
-0.06522696142698949
-0.04217311577261094
0.011130154557793346
0.4872496263135105
0.06049584233450287
0.16281780525289336
0.2434373960062731
-0.06948058658946174
0.2226634355113717
0.06925833785864896
0.1491575846527593