# vtk DataFile Version 1.0
2D Simulation C++
ASCII
DATASET UNSTRUCTURED_GRID
FIELD FieldData 1
NODES 1 2 int
348 601

POINTS 348 double
0.0 0.5 0.0
0.0 1.0 0.0
2.0 1.0 0.0
2.0 0.5 0.0
0.0 0.528801679611206 0.0
0.0 0.564507782459259 0.0
0.0 0.6110168099403381 0.0
0.0 0.6721802353858948 0.0
0.0 0.7528436183929443 0.0
0.0 0.8593378663063049 0.0
0.16666941344738007 1.0 0.0
0.3333356976509094 1.0 0.0
0.5000020265579224 1.0 0.0
0.6666678786277771 1.0 0.0
0.8333337306976318 1.0 0.0
1.0 1.0 0.0
1.1666662693023682 1.0 0.0
1.3333321809768677 1.0 0.0
1.4999979734420776 1.0 0.0
1.6666642427444458 1.0 0.0
1.8333306312561035 1.0 0.0
2.0 0.8593378663063049 0.0
2.0 0.7528436183929443 0.0
2.0 0.6721802353858948 0.0
2.0 0.6110168099403381 0.0
2.0 0.564507782459259 0.0
2.0 0.528801679611206 0.0
0.029850948601961136 0.5 0.0
0.05970168858766556 0.5 0.0
0.08955242484807968 0.5 0.0
0.1194031685590744 0.5 0.0
0.14925390481948853 0.5 0.0
0.17910465598106384 0.5 0.0
0.20895539224147797 0.5 0.0
0.2388061285018921 0.5 0.0
0.2686568796634674 0.5 0.0
0.29850760102272034 0.5 0.0
0.32835835218429565 0.5 0.0
0.35820910334587097 0.5 0.0
0.3880598247051239 0.5 0.0
0.4179105758666992 0.5 0.0
0.44776129722595215 0.5 0.0
0.47761204838752747 0.5 0.0
0.5074627995491028 0.5 0.0
0.5373135209083557 0.5 0.0
0.5671642422676086 0.5 0.0
0.5970150232315063 0.5 0.0
0.6268657445907593 0.5 0.0
0.6567164659500122 0.5 0.0
0.6865672469139099 0.5 0.0
0.7164179682731628 0.5 0.0
0.7462686896324158 0.5 0.0
0.7761194705963135 0.5 0.0
0.8059701919555664 0.5 0.0
0.8358209133148193 0.5 0.0
0.865671694278717 0.5 0.0
0.89552241563797 0.5 0.0
0.9253731369972229 0.5 0.0
0.9552239179611206 0.5 0.0
0.9850746393203735 0.5 0.0
1.0149253606796265 0.5 0.0
1.0447760820388794 0.5 0.0
1.0746268033981323 0.5 0.0
1.1044776439666748 0.5 0.0
1.1343283653259277 0.5 0.0
1.1641790866851807 0.5 0.0
1.1940298080444336 0.5 0.0
1.2238805294036865 0.5 0.0
1.2537312507629395 0.5 0.0
1.2835819721221924 0.5 0.0
1.3134328126907349 0.5 0.0
1.3432835340499878 0.5 0.0
1.3731342554092407 0.5 0.0
1.4029849767684937 0.5 0.0
1.4328356981277466 0.5 0.0
1.4626864194869995 0.5 0.0
1.492537260055542 0.5 0.0
1.522387981414795 0.5 0.0
1.5522387027740479 0.5 0.0
1.5820894241333008 0.5 0.0
1.6119401454925537 0.5 0.0
1.6417908668518066 0.5 0.0
1.6716417074203491 0.5 0.0
1.701492428779602 0.5 0.0
1.731343150138855 0.5 0.0
1.761193871498108 0.5 0.0
1.7910445928573608 0.5 0.0
1.8208953142166138 0.5 0.0
1.8507460355758667 0.5 0.0
1.8805968761444092 0.5 0.0
1.910447597503662 0.5 0.0
1.940298318862915 0.5 0.0
1.970149040222168 0.5 0.0
1.7358819246292114 0.7499510645866394 0.0
0.2656642198562622 0.7486277222633362 0.0
0.49981194734573364 0.737183690071106 0.0
0.74151611328125 0.7359843254089355 0.0
0.9774143695831299 0.7371892929077148 0.0
1.201690912246704 0.7367381453514099 0.0
1.447761058807373 0.7383390665054321 0.0
1.8591958284378052 0.6421071290969849 0.0
0.14080412685871124 0.6421071290969849 0.0
1.588537573814392 0.6783608794212341 0.0
0.2553686201572418 0.6221352219581604 0.0
1.7466964721679688 0.6278358101844788 0.0
0.38199201226234436 0.6273008584976196 0.0
0.5013589859008789 0.6272794008255005 0.0
0.6207823157310486 0.6272526383399963 0.0
0.7401852607727051 0.627252459526062 0.0
0.8595882654190063 0.6272523999214172 0.0
0.9701492786407471 0.6212864518165588 0.0
1.0807102918624878 0.6272523999214172 0.0
1.2001131772994995 0.6272523999214172 0.0
1.3195161819458008 0.6272523999214172 0.0
1.4488563537597656 0.6310953497886658 0.0
1.9247323274612427 0.5706554055213928 0.0
0.07526770234107971 0.5706554055213928 0.0
1.5377081632614136 0.5910930037498474 0.0
1.6566967964172363 0.5934624075889587 0.0
1.8074009418487549 0.5708622932434082 0.0
0.1940300166606903 0.5737577676773071 0.0
1.0286364555358887 0.5665481686592102 0.0
1.14803946018219 0.5665481686592102 0.0
0.9116620421409607 0.5665481686592102 0.0
1.2674424648284912 0.5665481686592102 0.0
0.7922590970993042 0.5665481686592102 0.0
0.6728560328483582 0.5665482878684998 0.0
0.5534531474113464 0.5665481686592102 0.0
1.3892061710357666 0.5727682709693909 0.0
0.43402159214019775 0.5665869116783142 0.0
0.3146642744541168 0.5667200088500977 0.0
1.8656742572784424 0.5607567429542542 0.0
0.1343258023262024 0.5607567429542542 0.0
1.5970147848129272 0.5642029047012329 0.0
1.8783670663833618 0.7786769866943359 0.0
0.12163297086954117 0.7786769866943359 0.0
1.7164177894592285 0.562579333782196 0.0
1.4776118993759155 0.5620538592338562 0.0
1.5857784748077393 0.867691159248352 0.0
0.25373148918151855 0.5588531494140625 0.0
0.9701492786407471 0.5582930445671082 0.0
1.0895521640777588 0.5582930445671082 0.0
0.8507462739944458 0.5582930445671082 0.0
1.20895516872406 0.5582930445671082 0.0
0.7313433289527893 0.5582930445671082 0.0
1.3283581733703613 0.5582930445671082 0.0
0.6119403839111328 0.5582930445671082 0.0
0.49253740906715393 0.5582930445671082 0.0
0.37313446402549744 0.5582956075668335 0.0
0.36864349246025085 0.7376502752304077 0.0
0.602456271648407 0.7355343103408813 0.0
0.8441241383552551 0.7366551756858826 0.0
1.3355978727340698 0.7366551160812378 0.0
1.0895521640777588 0.7378703355789185 0.0
0.07051979005336761 0.6486480832099915 0.0
1.9294801950454712 0.6486480832099915 0.0
1.5086064338684082 0.6743985414505005 0.0
1.6785967350006104 0.6649783849716187 0.0
1.9543375968933105 0.5452249050140381 0.0
0.04566239193081856 0.5452249050140381 0.0
1.6567095518112183 0.5496091842651367 0.0
1.53738272190094 0.5491842031478882 0.0
0.91306072473526 0.8965699672698975 0.0
1.7782752513885498 0.5446287989616394 0.0
1.4163299798965454 0.5447981357574463 0.0
0.4287482798099518 0.8945969939231873 0.0
1.2610714435577393 0.8950135707855225 0.0
0.4313095211982727 0.6832783222198486 0.0
0.31561949849128723 0.6858259439468384 0.0
1.029850721359253 0.6781684160232544 0.0
0.9082015752792358 0.6848641633987427 0.0
1.1492537260055542 0.6781684160232544 0.0
0.7886138558387756 0.678956151008606 0.0
1.2709345817565918 0.684736430644989 0.0
0.6685023903846741 0.6868807673454285 0.0
1.4007169008255005 0.6702371835708618 0.0
0.5483440160751343 0.6792802214622498 0.0
0.19808045029640198 0.6887137293815613 0.0
1.797759771347046 0.6853783130645752 0.0
0.6811949610710144 0.8757594227790833 0.0
1.0189321041107178 0.8474968671798706 0.0
0.7922950983047485 0.8446238040924072 0.0
1.3765455484390259 0.8590760827064514 0.0
1.1571698188781738 0.8478953838348389 0.0
1.8954496383666992 0.5359624624252319 0.0
1.8360060453414917 0.5359931588172913 0.0
0.10455036163330078 0.5359624624252319 0.0
0.16417928040027618 0.5353734493255615 0.0
0.5530290007591248 0.8422092199325562 0.0
0.2832632064819336 0.5367912650108337 0.0
0.22469767928123474 0.5394234657287598 0.0
0.9405550956726074 0.5357381105422974 0.0
0.9997434020042419 0.5357381105422974 0.0
1.0600273609161377 0.5365630984306335 0.0
1.1191463470458984 0.5357381105422974 0.0
0.8802711367607117 0.5365630984306335 0.0
0.8211521506309509 0.5357381105422974 0.0
1.2385493516921997 0.5357381105422974 0.0
1.179430365562439 0.5365630984306335 0.0
0.7608681321144104 0.5365630984306335 0.0
0.7017492055892944 0.5357381105422974 0.0
1.2988333702087402 0.5365630984306335 0.0
1.357560396194458 0.5390686392784119 0.0
0.5823462605476379 0.5357381105422974 0.0
0.6414651870727539 0.5365630984306335 0.0
0.5220622420310974 0.5365630984306335 0.0
0.4629422128200531 0.535739541053772 0.0
0.3435409665107727 0.5357455015182495 0.0
0.4026572108268738 0.5365669131278992 0.0
0.21006634831428528 0.8590372204780579 0.0
1.7943172454833984 0.8627070188522339 0.0
0.06134982034564018 0.7191494703292847 0.0
1.938650131225586 0.7191494703292847 0.0
1.634666085243225 0.7584379315376282 0.0
0.3355695903301239 0.8387951850891113 0.0
1.537941336631775 0.7633647918701172 0.0
1.9670078754425049 0.574067234992981 0.0
0.032992132008075714 0.574067234992981 0.0
1.6862140893936157 0.5314788222312927 0.0
1.6272135972976685 0.5317342281341553 0.0
1.5077245235443115 0.5309156775474548 0.0
1.5668202638626099 0.5316618084907532 0.0
1.7466963529586792 0.5298213958740234 0.0
1.4473658800125122 0.5297333002090454 0.0
1.804386019706726 0.5275400876998901 0.0
1.9283779859542847 0.5282225012779236 0.0
1.8656879663467407 0.5267112255096436 0.0
0.13432854413986206 0.5271331071853638 0.0
0.07162196189165115 0.5282225012779236 0.0
0.25373148918151855 0.527070939540863 0.0
0.19419340789318085 0.5297109484672546 0.0
0.31349387764930725 0.5272363424301147 0.0
0.37313446402549744 0.5270199179649353 0.0
0.4329495429992676 0.5274069309234619 0.0
0.49253740906715393 0.5270196795463562 0.0
0.5523557066917419 0.5274024605751038 0.0
1.3898069858551025 0.5277745127677917 0.0
1.3283581733703613 0.5270196795463562 0.0
0.6119403839111328 0.5270196795463562 0.0
1.2685397863388062 0.5274024605751038 0.0
0.6717586517333984 0.5274024605751038 0.0
0.7313433289527893 0.5270196795463562 0.0
1.20895516872406 0.5270196795463562 0.0
0.7911616563796997 0.5274024605751038 0.0
0.8507462739944458 0.5270196795463562 0.0
1.1491369009017944 0.5274024605751038 0.0
1.0895521640777588 0.5270196795463562 0.0
0.9105646014213562 0.5274024605751038 0.0
0.9701492786407471 0.5270196795463562 0.0
1.0297338962554932 0.5274024605751038 0.0
1.4776118993759155 0.5259945392608643 0.0
1.597015619277954 0.5255197882652283 0.0
1.7164177894592285 0.525999903678894 0.0
1.6834615468978882 0.8477573990821838 0.0
1.5822722911834717 0.6086509227752686 0.0
0.20459823310375214 0.6270732283592224 0.0
1.8037469387054443 0.6209055185317993 0.0
0.09990309923887253 0.8589919805526733 0.0
1.9000968933105469 0.8589919805526733 0.0
1.75603187084198 0.5789161324501038 0.0
0.10896337777376175 0.5982794761657715 0.0
1.8910366296768188 0.5982794761657715 0.0
1.4950518608093262 0.605266273021698 0.0
1.7049394845962524 0.6007562279701233 0.0
1.4387125968933105 0.5775743722915649 0.0
1.489302158355713 0.851039469242096 0.0
0.15732239186763763 0.5961292386054993 0.0
1.8436260223388672 0.5944437384605408 0.0
0.4399496018886566 0.6259797215461731 0.0
1.022565245628357 0.6257523894309998 0.0
[...]
POINT_DATA 348
SCALARS Psi double
LOOKUP_TABLE default
1.0878984769834994
1.0
1.0
1.076668473434229
1.0877880086921412
1.087545112872495
1.089146810702474
1.093872807537287
1.1033510774544184
1.1418217498509333
1.0
1.0
1.0
1.0
1.0
1.0
1.0
1.0
1.0
1.0
1.0
1.134268547348501
1.094275126426173
1.0844750386177913
1.0798819150828995
1.0777145578192446
1.076859058341206
1.087981291586533
1.0867118763125378
1.0848223074891823
1.0824208029624274
1.0794798138970876
1.0760237516419284
1.0721218778625485
1.067867298504343
1.0633834659693995
1.0587584822113387
1.0540920685121686
1.049463054015533
1.0449565301829618
1.0406244019865816
1.0364944341890634
1.0325996294116635
1.028967295370215
1.0256109516769873
1.022518396947552
1.0196945099997161
1.017138204563019
1.0148448766122626
1.0127905996313051
1.0109687949955857
1.009369187919025
1.007982641462825
1.0067887735430057
1.0057803936154737
1.0049494207929834
1.004289020966212
1.00378668296806
1.0034383177260595
1.0032412179864438
1.0031934626323573
1.0032914664224453
1.0035346491847625
1.0039285920317598
1.004476234531344
1.0051807989925383
1.0060462524044007
1.0070859690829286
1.0083062881195377
1.009714485095905
1.011316275021796
1.0131345667208334
1.0151740712754742
1.0174309826279857
1.019934690496327
1.022676504352503
1.0256555140905275
1.0288722248021942
1.0323240775804747
1.0359903979073086
1.0398395459327778
1.0438338516144021
1.0479255434138104
1.052054309844608
1.0561439144433524
1.060107263739611
1.0638381794085736
1.067240217855416
1.070204763523951
1.0726291973306545
1.074475652107836
1.0757491317488626
1.076461348643957
1.04678671408659
1.0518855000724951
1.0201199604569062
1.0058086579727579
1.0016730993853937
1.0036439579075183
1.013915973402057
1.0733682609467308
1.082112749278461
1.0311074546128867
1.0635343152229069
1.0566896107940793
1.0425530101323732
1.026824162652835
1.0156243741256985
1.00844979269168
1.0043633740518645
1.0028458027427376
1.0030421457217462
1.0054011085390255
1.0102988641294508
1.019045716857507
1.0762816011736902
1.0856765476039778
1.0292513522911577
1.044529518402932
1.065908396845716
1.0740341953061467
1.003069077572699
1.0045811732079393
1.0038189480472084
1.0086117261767655
1.0070315810044075
1.0132384737412263
1.0232041920202475
1.0157541026310035
1.037486028812828
1.0554784238399768
1.0719808348192947
1.0811616431693318
1.0372069696962527
1.078243881394905
1.0863580208311294
1.0536728233878065
1.0235734840402928
1.013076870596065
1.0652546148188746
1.0031970702721311
1.0035799055125247
1.0051657603275457
1.006342728859155
1.0098478124013972
1.0118732907492798
1.0179114557346438
1.0300947567614784
1.0464794964668456
1.0356947734360253
1.0123546258646068
1.0031387526267117
1.0079927497403538
1.0019375277239644
1.0902638579056108
1.08078432135797
1.0226368042288936
1.0445797983796061
1.0766486571590612
1.0869297767255723
1.0454993635465275
1.0301804138238322
1.000432480267231
1.0622234049173906
1.0182593242610096
1.0105238654931321
1.0014801929882757
1.0321300581762909
1.049402653463407
1.002286705802267
1.0028325962802584
1.0035487719242062
1.00561849411591
1.0068375303200636
1.0105845071541388
1.0140169787372277
1.0195846332631582
1.0716959202125116
1.0635402078320983
1.0033690914453341
1.0005515331821084
1.0019091570635454
1.0044738012462482
1.0011770833786464
1.073882683099067
1.0689326735614193
1.0837058560475887
1.077857782314401
1.0080518482034118
1.0609556702058394
1.0698224705225443
1.00354492772303
1.0031569163079224
1.003351453507896
1.004128366602829
1.0045480202070867
1.0061844264670197
1.007584971675608
1.0055370344643133
1.00857214972176
1.0117220872304393
1.0104033303271476
1.0139270312023407
1.0208731897092393
1.0158334356972805
1.0270743161862286
1.0342521828569613
1.0515054358964933
1.042562090463554
1.0395567073147933
1.0362112348312287
1.098043593693616
1.0884747686323992
1.0302226330014128
1.0266177500270113
1.019376453224275
1.0777981846280675
1.0869960860107124
1.0498145002276824
1.041708112832717
1.0271153460921074
1.0339262825685462
1.0581499505274659
1.0211278038926104
1.06542418702421
1.075478576355972
1.0715896601876105
1.081029169881147
1.085907616252602
1.0655604262616512
1.0740717900336205
1.0562843019175507
1.0470323786989069
1.038362668818081
1.030604485641026
1.0238980958824448
1.0163204985872345
1.0121235505028752
1.0182792721289533
1.008927535633042
1.0137006926605732
1.0100775940898594
1.0065004065814367
1.0073103001780594
1.0053049887157335
1.00477332452409
1.0036843232931254
1.00398742696731
1.0032948985792938
1.003199708105969
1.0240373684384823
1.0377827195239526
1.0540276719145047
1.0247321293821137
1.0340237362170865
1.0720977988565232
1.065417482188315
1.0766798891205027
1.0694555708534284
1.0590427113200536
1.0841870065181194
1.0751056012445541
1.0242340738306563
1.0512398297615386
1.0196470565316977
1.0091319963308434
1.0790605325393328
1.070403244609527
1.0344440141622342
1.0027017874855304
1.0033116223983538
1.0039833513272607
1.0061442620033914
1.0075903657888186
1.0117380026344795
1.0131967836917155
1.0208948324711022
1.0530712632060535
1.0269044598132664
1.0769456156149668
1.085352200281995
1.0490327266223365
1.0329780914666407
1.041576920259805
1.0531510719428063
1.0023830394081825
1.0026693318597104
1.0039419041256425
1.0050219875293687
1.007914774408205
1.0097441161355118
1.0144741884496344
1.0255108371705666
1.0411378733400856
1.107972035122549
1.099286007697021
1.076666243726685
1.0879553729678462
1.0607630690793015
1.0029735041889967
1.0032515927968164
1.0031706790403598
1.0612209363020932
1.0037527251632439
1.0043770389655624
1.005600362605609
1.005364295460379
1.0069008802830994
1.0083446846409045
1.0107080916977347
1.0101583516850554
1.0127990719246747
1.0154620649203072
1.0192794355203167
1.0265465491556105
1.0680749011659223
1.032071659150241
1.0420100878565766
1.048885485525895
1.017436280907112
1.04578733310936
1.0304818364316777
1.0386471724412762
1.0014570237378841
1.0217583144726798
1.038965917730823
1.0837777955585086
1.074404668577456
1.0002569136635024
1.0282062355106707
1.069242870552
1.0781093508632977
1.0039402015431849
1.0875215117575716
1.077133110876327
1.0872136433594148
1.0783251173703636
1.0690638773286185
1.0624278457317473
1.062006022112408
1.0185975291873692
1.0010538019550368
1.0163453190973168
1.0065916878109027
1.0761908400239388
1.0872104913997676
1.0528187225237797
1.0469710941915278

SCALARS Omega double
LOOKUP_TABLE default
4.100276523981313
-10.327730868638739
-14.268649702895797
0.13217854971427967
4.492515412003958
-2.6837946331398648
-4.473557721562314
3.542292184322226
1.0314781585221149
20.84264546422605
-8.188675279073609
-0.4094726412921597
-0.8985277666061288
-0.23421427997273223
-0.1136913651976158
-0.030612519475826487
-0.11116936400851915
-0.18643534009052107
-0.6569894950231171
-0.6110340572568776
-6.11574548049762
17.94367052127352
3.512463686006447
-1.0379081240519277
0.1453483131535428
0.03351224920803202
-0.3220313439096598
2.1113616841865857
1.091836739283805
0.7143021408407176
0.5849518242593507
0.5327239289893702
0.5070780219124774
0.478190208309267
0.44153691535194484
0.3974118259329177
0.34773274917636365
0.296246478792856
0.24497902378401343
0.19618325845073478
0.15080914997765466
0.10952065182725385
0.07261366573078032
0.040333668661261916
0.012569940773480457
-0.011155091341086712
-0.031081538325613764
-0.04752428839527859
-0.06081107579788059
-0.07154098452625035
-0.08001319507606366
-0.08658273393192886
-0.09151351059316726
-0.09520490214139656
-0.09785108399188322
-0.09967258564136691
-0.10081271653388316
-0.10146340522118978
-0.10170915707868726
-0.10162643931808168
-0.1012475335198365
-0.10059248625692918
-0.09964787586918823
-0.09834262291382105
-0.09661188108815667
-0.0943423364615966
-0.09142588430503298
-0.08763186697529254
-0.08279808688523221
-0.07668811774306462
-0.06909496084104078
-0.05954702567274078
-0.04780263004093769
-0.03366471996517641
-0.016472516691589115
0.003910715366086287
0.027743279310534875
0.055309299957289504
0.08677709523967622
0.12203705004683389
0.16057626056926375
0.20168971931072824
0.24401360618669202
0.2859351766272184
0.32478702230630935
0.35760143612756984
0.37954721185442053
0.3852480540554188
0.37065566432769304
0.330002427463713
0.2610341347132415
0.16510922053327345
0.0663508056069953
0.31510664464294313
0.3393627414364723
-0.11646410513654619
-0.1309117801615266
-0.10570535072547044
-0.11366528408246594
-0.12385495565859801
0.7178328221611886
0.8448250360165991
0.04691934835465229
0.46988164399172044
0.4081247853928606
0.16694968575604688
0.0028976957918427733
-0.07395190862765355
-0.10007916755036535
-0.10519603433096857
-0.10385515709124869
-0.10230749987961626
-0.0984360454457042
-0.08460631312044807
-0.040685473218615785
0.3065098357989299
0.09488987774967171
0.051862648546705956
0.2173011384096439
0.43991745424564177
0.5280590914973764
-0.10168034291314232
-0.09715068832625887
-0.10234026024592142
-0.08372731089095091
-0.09659123394926065
-0.07320413679920496
-0.011171702885760599
-0.04893109968748289
0.11627865124060266
0.32074734558384715
0.4093844650458224
0.4908519493611793
0.13352121939874392
2.249060078298036
2.5274008860526553
0.31560115894484053
0.007244367398080557
-0.31878326360234627
0.4342895151463123
-0.10231052203198542
-0.09981653990907999
-0.10036122265921452
-0.09157755732300707
-0.08711224924344042
-0.06873034036289154
-0.046554299244620935
0.04633424860304918
0.21351030741347723
0.040642038707910486
-0.14344311753058592
-0.11680347007936608
-0.1234202555912538
-0.10619338493219357
0.9676271948828854
0.5747828502607655
-0.031028790630715532
0.23799460550676357
0.1404995387002284
0.45038736404741214
0.22190947427015717
0.06523641497339283
-0.09857932921214149
0.38752328095333527
-0.030069199055813036
-0.41888412015762483
-0.15081388598108555
0.03255476328185819
0.2753749315005643
-0.10461594136318074
-0.10807497435099377
-0.10488129072523225
-0.11268882037429204
-0.1049719876212243
-0.11310584562995996
-0.08190640534377198
-0.07324251865744442
0.8361154800942715
0.692307190376321
-0.20088359160623853
-0.09796281628812555
-0.14249528874665998
-0.20891330617184908
-0.11464447402285494
0.32160353286634136
0.3990827185986844
0.5432661230559809
0.5181515977177145
-0.30164019024923006
0.37625891896179237
0.4676878664085512
-0.10188365561579875
-0.10167028337952254
-0.10038379939699604
-0.09788400407814492
-0.10072889092424205
-0.09731587230602605
-0.08620588352388008
-0.09350493055494917
-0.09023239318252066
-0.07756278935468351
-0.07426950041371064
-0.05627370007447628
-0.024308010338897817
-0.05649828670633626
0.02302031912053968
0.08697779968907388
0.2689063063898094
0.17062935549271638
-0.6191910085305325
-0.5147471743256712
2.3294451967959877
1.9777754250994553
-0.011509769355414059
-0.23816949332249618
-0.12062842070750608
0.1669067941898961
-1.0217322587158018
0.2655263719751387
0.18017291898370547
0.03920633181762508
0.10148363548241152
0.34662521612018604
-0.00856644674482148
0.39209168457798943
0.21860647040005365
0.3652352224533725
0.5338230206522099
0.7124939599834347
0.4234155083279998
0.4972714450889107
0.3222716905541974
0.21880368333231176
0.12752234303239596
0.05381255995471397
-0.0016604065363268821
-0.04142739187820393
-0.0655400150852423
-0.041222132848146305
-0.0805610512708756
-0.06760866620740989
-0.08431550967896578
-0.09007784658358117
-0.09403065658203341
-0.09919200267909475
-0.09582568017693717
-0.09921845533060526
-0.10139568420864718
-0.10184365191465963
-0.10108290312888744
0.01396245467884784
0.13979957395908468
0.30760260657281374
-0.26389137076677993
0.09725924066490473
0.6218180542933337
0.5337798946028856
2.9039953249172683
2.155648129145396
0.3856460759341295
0.4315959282688931
0.47340740619943733
0.005161910418815338
0.30623712543714676
-0.024410180699587544
-0.28101082635302743
0.5921227656555538
0.5085895560124036
0.07552640637791799
-0.1032226486027456
-0.10472861759855485
-0.10082964293859935
-0.10385688553907248
-0.09299626609125979
-0.08998772105153233
-0.0714736501652975
-0.04182865350952193
0.31016154353264197
0.03413615842671173
1.2523254529469667
1.4785747890245806
0.26516218376838435
0.0903694788350703
0.1803310611269806
0.4136173892131229
-0.10537173306427779
-0.10433454297535123
-0.11016405045556141
-0.1044453202941456
-0.1120009702803133
-0.09772732602419693
-0.09915248240112431
-0.028489950946614828
0.14423110157876082
5.598342279596579
5.403330984878535
-0.012855732999329484
2.0975689906063453
0.4888528682952431
-0.10265891196729708
-0.10312346170139496
-0.10135158086106727
0.4019969372158671
-0.09983769939264403
-0.10270260987477767
-0.10100531137777073
-0.09587015567090763
-0.0912421690544186
-0.09487786389623198
-0.08672256029558849
-0.07944044463598532
-0.0671366609814552
-0.06531804108941522
-0.04228593814697212
0.010999615556814503
0.4886783240442179
0.06039507821548093
0.1628721313289193
0.2437090840632379
-0.0690210764957518
0.22262519588077237
0.06938349651667693
0.14914135206561951
-0.10985032279386889
-0.1682994277650981
0.15224920608958706
0.38217088683436073
0.37518989444972833
-0.08900179223238319
0.032410985461762326
0.44000540573470265
0.5321895979971916
-0.13409303671937473
0.46689763443195653
0.01121981111985658
-0.5101374055953622
0.34085162638760524
1.020318530848667
0.9271598186044854
0.37332392714965573
-0.02622225950570814
-0.17256939203719682
-0.05296701595086753
-0.1661729878013534
0.11856082932003881
1.2482117845282257
0.572932812808658
-1.2167722159727843

SCALARS Vx_analytic double
LOOKUP_TABLE default
4.100276523981313
-10.327730868638739
-14.268649702895797
0.1321063588435037
4.492515412003958
-2.6837946331398648
-4.473557721562314
3.542292184322226
1.0314781585221149
20.84264546422605
-8.188675279073609
-0.4094726412921597
-0.8985277666061288
-0.23421427997273223
-0.1136913651976158
-0.030612519475826487
-0.11116936400851915
-0.18643534009052107
-0.6569894950231169
-0.6110340572568776
-6.11574548049762
17.94367052127352
3.5132647016501704
-1.0157705226122848
0.14755556896652244
0.03451969072040754
-0.32007614101259835
2.1113616841865857
1.091836739283805
0.7143021408407176
0.5849518242593507
0.5327239289893702
0.5070780219124774
0.478190208309267
0.44153691535194484
0.3974118259329177
0.34773274917636365
0.296246478792856
0.24497902378401343
0.19618325845073478
0.15080914997765466
0.10952065182725385
0.07261366573078032
0.040333668661261916
0.012569940773480457
-0.011155091341086712
-0.031081538325613764
-0.04752428839527859
-0.06081107579788059
-0.07154098452625035
-0.08001319507606366
-0.08658273393192886
-0.09151351059316726
-0.09520490214139656
-0.09785108399188322
-0.09967258564136691
-0.10081271653388316
-0.10146340522118978
-0.10170915707868726
-0.10162643931808168
-0.10124740023646134
-0.10059251882408216
-0.09964803820180354
-0.09834309318577983
-0.09661272233089903
-0.09434413128938951
-0.0914282445438107
-0.08763561080754109
-0.08280299868919493
-0.07669628640545784
-0.06910465165626778
-0.05956115701785637
-0.04782271445765664
-0.033672206574900214
-0.016485156533470918
0.0038886256516549294
0.027721715876659957
0.05529765342214944
0.08676844165042302
0.12202048889740645
0.16057465966310377
0.20170966060320175
0.2440665348222101
0.28600167147098743
0.3248966209143897
0.3577129353468664
0.3797279137950764
0.3856007649612997
0.371028358354771
0.3304074496425029
0.26136833715550717
0.16535187797244008
0.06630768669148171
0.3072889957290716
0.3371705774036252
-0.11573712313630177
-0.13079936223129193
-0.10570526336346234
-0.1137277345908869
-0.12456351681800311
0.7269997530838715
0.8347617002823956
0.04600731795709863
0.46799102792511954
0.41050738487504607
0.16692154181845614
0.003136818246584554
-0.07378357995914668
-0.10001539945219205
-0.10518096202047598
-0.10385263591841239
-0.10231022052589094
-0.0984680500867479
-0.0847299094494383
-0.041016567421241865
0.30863176144987964
0.1016415273531852
0.051538010551142745
0.21754442680083008
0.4422804515731733
0.52704147201252
-0.10167997210294262
-0.09715895917638163
-0.10233688930507258
-0.08376969702075684
-0.09657519709096306
-0.07315760667917473
-0.011102097394030449
-0.04907484326982314
0.11625292269326497
0.3202582950913878
0.4115959928608717
0.49215551181943784
0.13340689531580102
2.2562437118238066
2.4658841711218207
0.3162011171266712
0.007046131840983499
-0.31995296050092614
0.43353013492512493
-0.10230914346579179
-0.09981845223589686
-0.10035332861760589
-0.09159292583646983
-0.0870818716302054
-0.0687858347928367
-0.04648302943987565
0.046411377035148894
0.2133889595804628
0.041510511143448586
-0.14299725793726514
-0.11677279807674835
-0.12376115711249046
-0.10620437817395251
0.8926159877805153
0.5831067703085587
-0.031782676562828086
0.23793724037007472
0.14188668151267178
0.45922605973637776
0.22203858099647608
0.0650781279518695
-0.09857983062943547
0.3884751341726949
-0.030156707474003095
-0.41751404077304516
-0.15089714505343427
0.03283313525763469
0.27463728523759673
-0.10461627108973104
-0.10806413560298822
-0.10490590177960454
-0.11263351629369965
-0.10508933224028005
-0.11291159706288581
-0.08229288127355093
-0.07287620839088985
0.828237059760283
0.6979120007929174
-0.20066841389454182
-0.09797133732704812
-0.14243498486580464
-0.20985508588921786
-0.11468442646778297
0.32292001848395807
0.40046620369367764
0.5455847378800623
0.5182087343640713
-0.3007932157171404
0.3759623856352338
0.46729200856145126
-0.10188290984061245
-0.10166978718984385
-0.10038461757545174
-0.09788784269613694
-0.10072723570089304
-0.09731214046610179
-0.08622867092860287
-0.0935169830517712
-0.09022603825685857
-0.07755241335382547
-0.07432008326678871
-0.05635072284471563
-0.024297085896653376
-0.05648761404387615
0.023012345206272107
0.0869457748792947
0.26873192099715026
0.1705323862956047
-0.6002056341510376
-0.5404004884477593
2.3324891305559614
1.9952133199580198
-0.014257392107048558
-0.2352659269587125
-0.1219608167111565
0.16889582649858703
-1.0064285844433611
0.26576580710011555
0.1801373051510474
0.039051050205725815
0.10135579244674328
0.3473622664115995
-0.008684097604894631
0.3932824480966487
0.2197150351943256
0.36633682400184797
0.5347506570017979
0.7167242054056906
0.42311182934801683
0.4970539951782944
0.32210803634585794
0.21875189538365733
0.12751936965717575
0.053844132579752076
-0.0016320439170738146
-0.041511653322351634
-0.0655882289307938
-0.041192890776187784
-0.08058885513279969
-0.06759080571377449
-0.08430298676625661
-0.09009113998765957
-0.09402450356042498
-0.0991888011053059
-0.09583145779584701
-0.09922023888407892
-0.10139448915330007
-0.10184318630012353
-0.10108299568752485
0.01383956043284569
0.13970770025857684
0.30797856297800863
-0.26982879492184036
0.09687461196337414
0.6181302552694393
0.5377275419632311
2.8036411905159637
1.9883209368411079
0.3871699339057798
0.42802009312499883
0.47752161765277057
0.0047807545064427965
0.306958594627509
-0.024649397888895266
-0.2824247934223224
0.5891892846791791
0.5124021457736293
0.07569963717750883
-0.10322214012660136
-0.10472280546712315
-0.10084243711366743
-0.10382389707065125
-0.09306718302755389
-0.0898839207068741
-0.07166194256183758
-0.041608896525228284
0.30944242493983476
0.03395529151450671
1.2650001459791758
1.4602339301795564
0.2655940351176315
0.09019063855273639
0.18038634187048302
0.4148559204238987
-0.10536872841787884
-0.10433908801181462
-0.11013644285094412
-0.10448741752899714
-0.11189175667949312
-0.09790536913166933
-0.09883408851999585
-0.02803111161482403
0.1441547648696724
5.320999405613021
5.209113588562563
-0.012093299296896145
2.0940044205246444
0.48593036045819293
-0.10265744365789653
-0.10312105980117624
-0.10135319646689771
0.4010911817400399
-0.09984306606497861
-0.102694786840023
-0.10099066859212819
-0.09589071455143529
-0.09127496646717266
-0.09484410807156023
-0.08667029526806125
-0.07952278186268684
-0.06724836323964264
-0.06522669378871199
-0.042172875148950316
0.011130345139149364
0.4872496425094999
0.06049600253570975
0.16281791508778332
0.24343747859357573
-0.06948049381398555
0.22266354082678189