# vtk DataFile Version 1.0
2D Simulation C++
ASCII
DATASET UNSTRUCTURED_GRID
FIELD FieldData 1
NODES 1 2 int
348 601

POINTS 348 double
0.0 0.5 0.0
0.0 1.0 0.0
2.0 1.0 0.0
2.0 0.5 0.0
0.0 0.528801679611206 0.0
0.0 0.564507782459259 0.0
0.0 0.6110168099403381 0.0
0.0 0.6721802353858948 0.0
0.0 0.7528436183929443 0.0
0.0 0.8593378663063049 0.0
0.16666941344738007 1.0 0.0
0.3333356976509094 1.0 0.0
0.5000020265579224 1.0 0.0
0.6666678786277771 1.0 0.0
0.8333337306976318 1.0 0.0
1.0 1.0 0.0
1.1666662693023682 1.0 0.0
1.3333321809768677 1.0 0.0
1.4999979734420776 1.0 0.0
1.6666642427444458 1.0 0.0
1.8333306312561035 1.0 0.0
2.0 0.8593378663063049 0.0
2.0 0.7528436183929443 0.0
2.0 0.6721802353858948 0.0
2.0 0.6110168099403381 0.0
2.0 0.564507782459259 0.0
2.0 0.528801679611206 0.0
0.029850948601961136 0.5 0.0
0.05970168858766556 0.5 0.0
0.08955242484807968 0.5 0.0
0.1194031685590744 0.5 0.0
0.14925390481948853 0.5 0.0
0.17910465598106384 0.5 0.0
0.20895539224147797 0.5 0.0
0.2388061285018921 0.5 0.0
0.2686568796634674 0.5 0.0
0.29850760102272034 0.5 0.0
0.32835835218429565 0.5 0.0
0.35820910334587097 0.5 0.0
0.3880598247051239 0.5 0.0
0.4179105758666992 0.5 0.0
0.44776129722595215 0.5 0.0
0.47761204838752747 0.5 0.0
0.5074627995491028 0.5 0.0
0.5373135209083557 0.5 0.0
0.5671642422676086 0.5 0.0
0.5970150232315063 0.5 0.0
0.6268657445907593 0.5 0.0
0.6567164659500122 0.5 0.0
0.6865672469139099 0.5 0.0
0.7164179682731628 0.5 0.0
0.7462686896324158 0.5 0.0
0.7761194705963135 0.5 0.0
0.8059701919555664 0.5 0.0
0.8358209133148193 0.5 0.0
0.865671694278717 0.5 0.0
0.89552241563797 0.5 0.0
0.9253731369972229 0.5 0.0
0.9552239179611206 0.5 0.0
0.9850746393203735 0.5 0.0
1.0149253606796265 0.5 0.0
1.0447760820388794 0.5 0.0
1.0746268033981323 0.5 0.0
1.1044776439666748 0.5 0.0
1.1343283653259277 0.5 0.0
1.1641790866851807 0.5 0.0
1.1940298080444336 0.5 0.0
1.2238805294036865 0.5 0.0
1.2537312507629395 0.5 0.0
1.2835819721221924 0.5 0.0
1.3134328126907349 0.5 0.0
1.3432835340499878 0.5 0.0
1.3731342554092407 0.5 0.0
1.4029849767684937 0.5 0.0
1.4328356981277466 0.5 0.0
1.4626864194869995 0.5 0.0
1.492537260055542 0.5 0.0
1.522387981414795 0.5 0.0
1.5522387027740479 0.5 0.0
1.5820894241333008 0.5 0.0
1.6119401454925537 0.5 0.0
1.6417908668518066 0.5 0.0
1.6716417074203491 0.5 0.0
1.701492428779602 0.5 0.0
1.731343150138855 0.5 0.0
1.761193871498108 0.5 0.0
1.7910445928573608 0.5 0.0
1.8208953142166138 0.5 0.0
1.8507460355758667 0.5 0.0
1.8805968761444092 0.5 0.0
1.910447597503662 0.5 0.0
1.940298318862915 0.5 0.0
1.970149040222168 0.5 0.0
1.7358819246292114 0.7499510645866394 0.0
0.2656642198562622 0.7486277222633362 0.0
0.49981194734573364 0.737183690071106 0.0
0.74151611328125 0.7359843254089355 0.0
0.9774143695831299 0.7371892929077148 0.0
1.201690912246704 0.7367381453514099 0.0
1.447761058807373 0.7383390665054321 0.0
1.8591958284378052 0.6421071290969849 0.0
0.14080412685871124 0.6421071290969849 0.0
1.588537573814392 0.6783608794212341 0.0
0.2553686201572418 0.6221352219581604 0.0
1.7466964721679688 0.6278358101844788 0.0
0.38199201226234436 0.6273008584976196 0.0
0.5013589859008789 0.6272794008255005 0.0
0.6207823157310486 0.6272526383399963 0.0
0.7401852607727051 0.627252459526062 0.0
0.8595882654190063 0.6272523999214172 0.0
0.9701492786407471 0.6212864518165588 0.0
1.0807102918624878 0.6272523999214172 0.0
1.2001131772994995 0.6272523999214172 0.0
1.3195161819458008 0.6272523999214172 0.0
1.4488563537597656 0.6310953497886658 0.0
1.9247323274612427 0.5706554055213928 0.0
0.07526770234107971 0.5706554055213928 0.0
1.5377081632614136 0.5910930037498474 0.0
1.6566967964172363 0.5934624075889587 0.0
1.8074009418487549 0.5708622932434082 0.0
0.1940300166606903 0.5737577676773071 0.0
1.0286364555358887 0.5665481686592102 0.0
1.14803946018219 0.5665481686592102 0.0
0.9116620421409607 0.5665481686592102 0.0
1.2674424648284912 0.5665481686592102 0.0
0.7922590970993042 0.5665481686592102 0.0
0.6728560328483582 0.5665482878684998 0.0
0.5534531474113464 0.5665481686592102 0.0
1.3892061710357666 0.5727682709693909 0.0
0.43402159214019775 0.5665869116783142 0.0
0.3146642744541168 0.5667200088500977 0.0
1.8656742572784424 0.5607567429542542 0.0
0.1343258023262024 0.5607567429542542 0.0
1.5970147848129272 0.5642029047012329 0.0
1.8783670663833618 0.7786769866943359 0.0
0.12163297086954117 0.7786769866943359 0.0
1.7164177894592285 0.562579333782196 0.0
1.4776118993759155 0.5620538592338562 0.0
1.5857784748077393 0.867691159248352 0.0
0.25373148918151855 0.5588531494140625 0.0
0.9701492786407471 0.5582930445671082 0.0
1.0895521640777588 0.5582930445671082 0.0
0.8507462739944458 0.5582930445671082 0.0
1.20895516872406 0.5582930445671082 0.0
0.7313433289527893 0.5582930445671082 0.0
1.3283581733703613 0.5582930445671082 0.0
0.6119403839111328 0.5582930445671082 0.0
0.49253740906715393 0.5582930445671082 0.0
0.37313446402549744 0.5582956075668335 0.0
0.36864349246025085 0.7376502752304077 0.0
0.602456271648407 0.7355343103408813 0.0
0.8441241383552551 0.7366551756858826 0.0
1.3355978727340698 0.7366551160812378 0.0
1.0895521640777588 0.7378703355789185 0.0
0.07051979005336761 0.6486480832099915 0.0
1.9294801950454712 0.6486480832099915 0.0
1.5086064338684082 0.6743985414505005 0.0
1.6785967350006104 0.6649783849716187 0.0
1.9543375968933105 0.5452249050140381 0.0
0.04566239193081856 0.5452249050140381 0.0
1.6567095518112183 0.5496091842651367 0.0
1.53738272190094 0.5491842031478882 0.0
0.91306072473526 0.8965699672698975 0.0
1.7782752513885498 0.5446287989616394 0.0
1.4163299798965454 0.5447981357574463 0.0
0.4287482798099518 0.8945969939231873 0.0
1.2610714435577393 0.8950135707855225 0.0
0.4313095211982727 0.6832783222198486 0.0
0.31561949849128723 0.6858259439468384 0.0
1.029850721359253 0.6781684160232544 0.0
0.9082015752792358 0.6848641633987427 0.0
1.1492537260055542 0.6781684160232544 0.0
0.7886138558387756 0.678956151008606 0.0
1.2709345817565918 0.684736430644989 0.0
0.6685023903846741 0.6868807673454285 0.0
1.4007169008255005 0.6702371835708618 0.0
0.5483440160751343 0.6792802214622498 0.0
0.19808045029640198 0.6887137293815613 0.0
1.797759771347046 0.6853783130645752 0.0
0.6811949610710144 0.8757594227790833 0.0
1.0189321041107178 0.8474968671798706 0.0
0.7922950983047485 0.8446238040924072 0.0
1.3765455484390259 0.8590760827064514 0.0
1.1571698188781738 0.8478953838348389 0.0
1.8954496383666992 0.5359624624252319 0.0
1.8360060453414917 0.5359931588172913 0.0
0.10455036163330078 0.5359624624252319 0.0
0.16417928040027618 0.5353734493255615 0.0
0.5530290007591248 0.8422092199325562 0.0
0.2832632064819336 0.5367912650108337 0.0
0.22469767928123474 0.5394234657287598 0.0
0.9405550956726074 0.5357381105422974 0.0
0.9997434020042419 0.5357381105422974 0.0
1.0600273609161377 0.5365630984306335 0.0
1.1191463470458984 0.5357381105422974 0.0
0.8802711367607117 0.5365630984306335 0.0
0.8211521506309509 0.5357381105422974 0.0
1.2385493516921997 0.5357381105422974 0.0
1.179430365562439 0.5365630984306335 0.0
0.7608681321144104 0.5365630984306335 0.0
0.7017492055892944 0.5357381105422974 0.0
1.2988333702087402 0.5365630984306335 0.0
1.357560396194458 0.5390686392784119 0.0
0.5823462605476379 0.5357381105422974 0.0
0.6414651870727539 0.5365630984306335 0.0
0.5220622420310974 0.5365630984306335 0.0
0.4629422128200531 0.535739541053772 0.0
0.3435409665107727 0.5357455015182495 0.0
0.4026572108268738 0.5365669131278992 0.0
0.21006634831428528 0.8590372204780579 0.0
1.7943172454833984 0.8627070188522339 0.0
0.06134982034564018 0.7191494703292847 0.0
1.938650131225586 0.7191494703292847 0.0
1.634666085243225 0.7584379315376282 0.0
0.3355695903301239 0.8387951850891113 0.0
1.537941336631775 0.7633647918701172 0.0
1.9670078754425049 0.574067234992981 0.0
0.032992132008075714 0.574067234992981 0.0
1.6862140893936157 0.5314788222312927 0.0
1.6272135972976685 0.5317342281341553 0.0
1.5077245235443115 0.5309156775474548 0.0
1.5668202638626099 0.5316618084907532 0.0
1.7466963529586792 0.5298213958740234 0.0
1.4473658800125122 0.5297333002090454 0.0
1.804386019706726 0.5275400876998901 0.0
1.9283779859542847 0.5282225012779236 0.0
1.8656879663467407 0.5267112255096436 0.0
0.13432854413986206 0.5271331071853638 0.0
0.07162196189165115 0.5282225012779236 0.0
0.25373148918151855 0.527070939540863 0.0
0.19419340789318085 0.5297109484672546 0.0
0.31349387764930725 0.5272363424301147 0.0
0.37313446402549744 0.5270199179649353 0.0
0.4329495429992676 0.5274069309234619 0.0
0.49253740906715393 0.5270196795463562 0.0
0.5523557066917419 0.5274024605751038 0.0
1.3898069858551025 0.5277745127677917 0.0
1.3283581733703613 0.5270196795463562 0.0
0.6119403839111328 0.5270196795463562 0.0
1.2685397863388062 0.5274024605751038 0.0
0.6717586517333984 0.5274024605751038 0.0
0.7313433289527893 0.5270196795463562 0.0
1.20895516872406 0.5270196795463562 0.0
0.7911616563796997 0.5274024605751038 0.0
0.8507462739944458 0.5270196795463562 0.0
1.1491369009017944 0.5274024605751038 0.0
1.0895521640777588 0.5270196795463562 0.0
0.9105646014213562 0.5274024605751038 0.0
0.9701492786407471 0.5270196795463562 0.0
1.0297338962554932 0.5274024605751038 0.0
1.4776118993759155 0.5259945392608643 0.0
1.597015619277954 0.5255197882652283 0.0
1.7164177894592285 0.525999903678894 0.0
1.6834615468978882 0.8477573990821838 0.0
1.5822722911834717 0.6086509227752686 0.0
0.20459823310375214 0.6270732283592224 0.0
1.8037469387054443 0.6209055185317993 0.0
0.09990309923887253 0.8589919805526733 0.0
1.9000968933105469 0.8589919805526733 0.0
1.75603187084198 0.5789161324501038 0.0
0.10896337777376175 0.5982794761657715 0.0
1.8910366296768188 0.5982794761657715 0.0
1.4950518608093262 0.605266273021698 0.0
1.7049394845962524 0.6007562279701233 0.0
1.4387125968933105 0.5775743722915649 0.0
1.489302158355713 0.851039469242096 0.0
0.15732239186763763 0.5961292386054993 0.0
1.8436260223388672 0.5944437384605408 0.0
0.4399496018886566 0.6259797215461731 0.0
1.022565245628357 0.6257523894309998 0.0
[...]
POINT_DATA 348
SCALARS Psi double
LOOKUP_TABLE default
1.087898474506053
1.0
1.0
1.0766684692568373
1.0877880062310081
1.0875451104728253
1.089146808444208
1.0938728055776068
1.103351076028678
1.1418217491790916
1.0
1.0
1.0
1.0
1.0
1.0
1.0
1.0
1.0
1.0
1.0
1.1342685463949085
1.0942751242410669
1.0844750354833277
1.0798819113725795
1.0777145537985322
1.07685905419222
1.0879812890903418
1.0867118737205068
1.0848223047274508
1.0824207999614404
1.0794798105858179
1.0760237479538184
1.0721218737330585
1.0678672938768174
1.0633834607863202
1.0587584764219224
1.0540920620731686
1.049463046891342
1.0449565223382868
1.0406243933960297
1.0364944248361303
1.03259961928864
1.028967284469646
1.0256109400022053
1.0225183845125194
1.019694496827032
1.017138190674285
1.0148448620389943
1.0127905844160043
1.0109687791873692
1.00936917156381
1.0079826246141672
1.0067887562652849
1.0057803759767705
1.0049494028558403
1.004289002797202
1.0037866646427789
1.0034382993200488
1.003241199566966
1.0031934442649642
1.0032914481793838
1.0035346311384703
1.0039285742442963
1.004476217059916
1.0051807818991554
1.0060462357470603
1.0070859529078522
1.0083062724652212
1.0097144700039336
1.0113162605276642
1.013134552846533
1.0151740580350346
1.0174309700499922
1.0199346785762085
1.022676493090709
1.025655503486079
1.0288722148441083
1.0323240682520354
1.0359903891854445
1.0398395377931808
1.0438338440274426
1.0479255363455786
1.0520543032565437
1.056143908295889
1.060107257992071
1.0638381740190492
1.067240212775059
1.070204758710284
1.0726291927369902
1.0744756476865058
1.0757491274578876
1.0764613444359756
1.0467867111098885
1.0518854974996699
1.0201199545677857
1.005808648841014
1.0016730890737742
1.0036439487149391
1.01391596714124
1.0733682570849017
1.0821127466396772
1.0311074484645153
1.0635343109926827
1.056689605790781
1.042553003595085
1.0268241535062497
1.0156243623890482
1.0084497788033617
1.0043633587501768
1.0028457867725236
1.0030421303411625
1.0054010944047302
1.0102988518930687
1.0190457071426293
1.0762815970210318
1.0856765450457788
1.0292513434329247
1.0445295116978235
1.0659083918866683
1.0740341916069163
1.0030690600146193
1.004581156626342
1.003818930541909
1.0086117114276716
1.007031564623348
1.0132384594379276
1.023204180442317
1.0157540903964644
1.0374860201995129
1.055478417971243
1.0719808302862215
1.081161640126665
1.0372069616079018
1.078243879475723
1.0863580194892184
1.0536728172767869
1.0235734735177875
1.0130768691663319
1.0652546100952045
1.003197052473952
1.0035798881944684
1.0051657431288248
1.0063427129981046
1.00984779685638
1.0118732770512404
1.0179114426606677
1.0300947466126718
1.0464794892483797
1.0356947694517742
1.0123546184434506
1.0031387426969534
1.0079927420500174
1.001937517783067
1.0902638557375461
1.080784317872975
1.0226367967521182
1.044579793152086
1.0766486529926649
1.0869297742306485
1.0454993564031625
1.0301804044165463
1.0004324779458378
1.0622233994948544
1.0182593122285613
1.0105238643738277
1.001480191094831
1.0321300518413512
1.049402649177027
1.0022866924235734
1.0028325832454434
1.003548759333055
1.0056184817140428
1.0068375194667865
1.0105844966853053
1.0140169693420589
1.0195846246210476
1.0716959174674598
1.0635402041396071
1.0033690888748972
1.0005515289268256
1.0019091530083357
1.004473798831912
1.0011770794820967
1.073882678653704
1.0689326686856209
1.0837058532100199
1.0778577788649777
1.0080518454118104
1.0609556648018923
1.0698224662035507
1.003544909553838
1.0031568981143395
1.003351435572011
1.004128349163095
1.004548002360434
1.0061844091936931
1.0075849559339531
1.0055370177887735
1.0085721333139648
1.0117220718832025
1.0104033157156258
1.0139270178234694
1.0208731770427102
1.0158334216384797
1.027074305042167
1.0342521732268397
1.0515054291942467
1.042562082357839
1.0395567065611944
1.0362112339411633
1.0980435920040048
1.0884747659978542
1.0302226293674825
1.0266177484463044
1.0193764487889503
1.0777981806246262
1.0869960836180563
1.0498144934647984
1.0417081050564616
1.027115335910747
1.0339262736262516
1.0581499446396911
1.02112779238427
1.0654241818173518
1.0754785720493207
1.071589655525006
1.0810291667558733
1.085907613618371
1.0655604214031456
1.0740717861643108
1.056284295854208
1.0470323712782859
1.0383626599152689
1.0306044752130212
1.0238980839159075
1.016320485812266
1.0121235364312975
1.0182792587012734
1.0089275203729589
1.01370067787298
1.010077578127638
1.0065003902896013
1.0073102832359717
1.0053049710582151
1.0047733073665532
1.0036843055092335
1.0039874088504002
1.0032948803021071
1.0031996899324747
1.0240373575834394
1.0377827111541833
1.0540276655974703
1.024732127925528
1.0340237284798783
1.0720977954055655
1.0654174776675263
1.0766798885028426
1.0694555700114061
1.0590427058659564
1.08418700385859
1.075105597126139
1.024234064388527
1.0512398238742533
1.0196470454207849
1.0091319940555796
1.0790605294259892
1.070403240157573
1.0344440063447191
1.0027017717241165
1.003311606666195
1.0039833364093502
1.0061442472411986
1.007590352499138
1.0117379897089371
1.0131967721974435
1.0208948219769076
1.0530712580076333
1.0269044500748838
1.07694561258676
1.0853521982254528
1.0490327200729253
1.032978082811846
1.041576912820561
1.053151067711823
1.0023830257259991
1.0026693188064095
1.0039418911343396
1.005021975540065
1.0079147626334415
1.009744105848447
1.0144741786156763
1.0255108295524349
1.041137867962446
1.1079720339973604
1.0992860060361542
1.0766662395485418
1.0879553704917262
1.060763065408611
1.0029734870252076
1.0032515757377873
1.0031706622368164
1.0612209313496295
1.0037527086793205
1.004377022243794
1.0056003462589873
1.0053642798878462
1.0069008653562608
1.0083446693192304
1.010708077113741
1.010158338086393
1.0127990591737606
1.0154620518413504
1.0192794234289597
1.0265465388360995
1.0680748969588236
1.0320716499161904
1.042010080388436
1.0488854790195399
1.017436272664418
1.0457873258271835
1.0304818268436575
1.038647165776463
1.0014570165758203
1.0217583110291029
1.038965910382564
1.0837777927921801
1.074404664262101
1.0002569121774145
1.0282062276246786
1.0692428658328623
1.078109347538738
1.0039401956856693
1.0875215093192079
1.0771331067686762
1.087213640991576
1.0783251134842429
1.0690638753649548
1.0624278431761003
1.0620060165737126
1.0185975169911574
1.0010538007722058
1.0163453081963734
1.006591681753039
1.0761908357876107
1.087210488863005
1.0528187222835024
1.0469710938931862

SCALARS Omega double
LOOKUP_TABLE default
4.100276591391498
-10.327730795440221
-14.268649563404008
0.13217857057069665
4.4925154264689775
-2.6837945533126386
-4.473557660638305
3.542292223089458
1.031478153519836
20.84264546033754
-8.188675201158397
-0.4094725223316481
-0.8985275654048863
-0.23421395944492907
-0.11369097869203904
-0.0306121112116952
-0.11116900934258354
-0.1864350413269881
-0.6569892800371288
-0.6110339256985038
-6.115745385055263
17.943670585106553
3.5124636782395275
-1.0379081270118664
0.14534828365172447
0.033512257695187064
-0.3220314024766836
2.1113617298231815
1.0918367791681753
0.7143021740878676
0.5849518485717904
0.5327239424923039
0.5070780229781106
0.4781901953461097
0.44153688695270027
0.3974117805696287
0.3477326855209542
0.29624639566912414
0.24497892024847062
0.1961831334988506
0.15080900293268606
0.10952048226600024
0.07261347351692019
0.04033345359088641
0.01256970300607017
-0.011155351315407794
-0.03108181974003139
-0.04752459061068133
-0.06081139784472414
-0.07154132507577529
-0.08001355259707366
-0.0865831071007094
-0.09151389782910913
-0.09520530147712046
-0.0978514933528461
-0.09967300322961165
-0.10081314041424606
-0.1014638331068145
-0.10170958669834658
-0.10162686875160323
-0.10124796091397732
-0.10059290946632769
-0.09964829272167432
-0.09834303164446351
-0.09661228010368694
-0.0943427239295846
-0.09142625851813
-0.08763222666583527
-0.0827984310565479
-0.07668844521417062
-0.06909527062636475
-0.05954731727641523
-0.04780290323637124
-0.03366497387292658
-0.01647275170070355
0.003910499124524789
0.027743081714217206
0.05530912054597804
0.0867769333880702
0.12203690492877148
0.1605761313667458
0.20168960504862593
0.24401350578527367
0.2859350888735674
0.3247869460072332
0.3576013700959648
0.37954715493643554
0.3852480049264219
0.3706556219689705
0.33000239086207755
0.26103410294133556
0.16510919313988945
0.06635078647551401
0.31510667870787457
0.33936277925554903
-0.11646412749080863
-0.1309118566701902
-0.10570544243634328
-0.11366535237067162
-0.1238549695641901
0.7178328075974316
0.8448250621490837
0.046919300116913615
0.46988162820892515
0.4081247471808452
0.1669496075626199
0.0028975471835843486
-0.0739521262932127
-0.10007944143760562
-0.10519634426859863
-0.1038554859380666
-0.10230780756468649
-0.09843631747898718
-0.08460653282794157
-0.040685624533282456
0.3065098106921259
0.09488991775342846
0.0518625084363221
0.2173010543458796
0.4399174100887805
0.5280590909253874
-0.10168073737720676
-0.09715105262548844
-0.10234065544988342
-0.08372762100931104
-0.0965915990762381
-0.07320444394020904
-0.011171932706343934
-0.04893133636993579
0.11627850664131985
0.3207472807201993
0.40938443047446654
0.49085197054097474
0.13352109535510484
2.2490601200595153
2.527400928680534
0.31560108616078925
0.007244176742459621
-0.3187831354512528
0.4342894838837873
-0.10231092619960802
-0.0998169280437059
-0.10036161189499296
-0.09157790153705492
-0.08711259273344335
-0.06873062133928322
-0.04655457284205542
0.04633405893977993
0.21351020278980987
0.040642050453770256
-0.14344316639113536
-0.11680355787465446
-0.12342029435327904
-0.10619346692983772
0.9676272328588957
0.5747828401969547
-0.031028869520109248
0.2379945714043075
0.140499514452598
0.4503874092251551
0.22190937382510675
0.06523625354382917
-0.09857906645886576
0.38752322420790747
-0.030069434422840453
-0.4188839881145408
-0.15081365779310005
0.03255470394630132
0.275374921410117
-0.10461616327794157
-0.10807518479148213
-0.10488149129422936
-0.1126890225951254
-0.10497213967081415
-0.11310599821018506
-0.0819065311951824
-0.07324263404767842
0.8361155033628173
0.6923071888274512
-0.2008834015446325
-0.09796264605887861
-0.14249513301963226
-0.20891313999329975
-0.11464430761563943
0.32160350023479467
0.3990826750071376
0.5432661528283902
0.5181516061354584
-0.3016400703912743
0.3762588670984563
0.46768784739693686
-0.10188407617895609
-0.10167070347460984
-0.10038421077391514
-0.0978844000542159
-0.10072930312408908
-0.09731626896140472
-0.08620622827962969
-0.09350530319020404
-0.09023276547138925
-0.07756313161863955
-0.07426981168792121
-0.0562739750681181
-0.02430827551903117
-0.05649859198683419
0.02302009820279868
0.08697762294790498
0.2689062158670193
0.17062922353805812
-0.6191909294960667
-0.5147470841212695
2.3294452251172753
1.9777754326557244
-0.01150973535726476
-0.23816940700695552
-0.12062838988627668
0.1669067765743184
-1.021732204135361
0.26552628033690256
0.1801728004630693
0.03920614718538495
0.10148348528004127
0.3466251469750745
-0.008566668959029718
0.39209163257177976
0.2186064418621142
0.3652351841208505
0.5338230402312607
0.7124939981799693
0.42341547286953685
0.49727144014932273
0.3222716188855868
0.21880357137462536
0.12752218732353418
0.05381235953214184
-0.0016606519038625668
-0.04142765043283605
-0.0655403111783384
-0.04122242053687557
-0.08056138241835649
-0.06760899314408308
-0.08431587011637771
-0.09007820839248754
-0.09403104483969335
-0.0991924107298364
-0.09582606822273243
-0.09921886258543582
-0.10139610465481216
-0.10184407578323108
-0.10108332293674707
0.013962250859718016
0.13979943912860898
0.3076025263605727
-0.2638912731622084
0.09725913339598329
0.6218180596332842
0.5337798651881668
2.9039953777987706
2.15564820726217
0.3856460207477176
0.4315959595339971
0.4734073822385868
0.005161758011618624
0.3062370625458547
-0.024410384887573442
-0.28101069592157724
0.5921227818723935
0.5085895250234233
0.0755262931678135
-0.10322296886036827
-0.10472893920059757
-0.1008299381764915
-0.10385718314534345
-0.09299651548478625
-0.08998797084448401
-0.07147385154957159
-0.041828838947257724
0.31016150189410335
0.03413599038241633
1.252325461261193
1.478574822788683
0.26516210034833426
0.09036934036253695
0.18033095471063348
0.4136173790003739
-0.10537196688642474
-0.10433475527476872
-0.11016426595063829
-0.10444550631446542
-0.11200116000540548
-0.09772746947062357
-0.09915262606186093
-0.028490043246583528
0.14423106337927452
5.598342302590706
5.403331021627285
-0.012855761298086835
2.0975690307085437
0.4888528703123593
-0.10265928971088344
-0.10312383632484244
-0.10135194603877243
0.4019968996831461
-0.09983805536617357
-0.10270297645402778
-0.10100566886472134
-0.09587048403248795
-0.09124247912885916
-0.09487819301348865
-0.08672286981122845
-0.07944071602203062
-0.06713690871513356
-0.06531830847589827
-0.042286178487820625
0.010999425367347078
0.4886783081720316
0.06039491840059745
0.16287202191931177
0.24370900186024352
-0.06902117036771654
0.22262509023152233
0.06938332804148083
0.14914127615018644
-0.10985028243242084
-0.16829937846946513
0.1522491060089096
0.3821709177761503
0.37518986524139936
-0.08900149605685678
0.0324108817820215
0.4400053669973358
0.5321896093690605
-0.13409298090781652
0.46689768371534474
0.011219789282245844
-0.5101373601045993
0.3408516063703258
1.0203185730878872
0.9271598518373232
0.3733238666528182
-0.026222501818834523
-0.1725691100370533
-0.05296720419612389
-0.1661729546639454
0.11856080318617233
1.2482118262399933
0.5729328676123759
-1.2167721124921984

SCALARS Vx_analytic double
LOOKUP_TABLE default
4.100276591391498
-10.327730795440221
-14.268649563404008
0.13210637964628957
4.4925154264689775
-2.6837945533126386
-4.473557660638305
3.542292223089458
1.031478153519836
20.84264546033754
-8.188675201158397
-0.4094725223316481
-0.8985275654048863
-0.23421395944492907
-0.11369097869203904
-0.0306121112116952
-0.11116900934258354
-0.1864350413269881
-0.6569892800371285
-0.6110339256985038
-6.115745385055263
17.943670585106553
3.513264695897717
-1.0157705221645101
0.14755553987934503
0.03451969899665335
-0.3200761990870083
2.1113617298231815
1.0918367791681753
0.7143021740878676
0.5849518485717904
0.5327239424923039
0.5070780229781106
0.4781901953461097
0.44153688695270027
0.3974117805696287
0.3477326855209542
0.29624639566912414
0.24497892024847062
0.1961831334988506
0.15080900293268606
0.10952048226600024
0.07261347351692019
0.04033345359088641
0.01256970300607017
-0.011155351315407794
-0.03108181974003139
-0.04752459061068133
-0.06081139784472414
-0.07154132507577529
-0.08001355259707366
-0.0865831071007094
-0.09151389782910913
-0.09520530147712046
-0.0978514933528461
-0.09967300322961165
-0.10081314041424606
-0.1014638331068145
-0.10170958669834658
-0.10162686875160323
-0.10124782762795048
-0.10059294201964315
-0.09964845502749059
-0.09834350187971878
-0.09661312129800773
-0.09434451869851038
-0.09142861868526783
-0.08763597041921613
-0.08280334277132874
-0.07669661377974922
-0.06910496133262316
-0.05956144849929716
-0.0478229875264685
-0.03367246038388742
-0.016485391440879838
0.003888409520261922
0.0277215183941968
0.0552974741229455
0.08676827990741973
0.12202034388868505
0.16057453056329768
0.20170954643617975
0.24406643450777174
0.28600158380448776
0.32489654469404894
0.3577128693773041
0.37972785693158595
0.3856007159088496
0.37102831606884634
0.3304074131038951
0.2613683054377644
0.1653518506071639
0.06630766750335884
0.3072890282161752
0.337170614518955
-0.11573714655876417
-0.1307994394758529
-0.10570535511897063
-0.11372780229601002
-0.12456353024090548
0.7269997387830076
0.8347617254257732
0.0460072705085444
0.46799101154842476
0.4105073469620853
0.16692146289537485
0.003136668832108862
-0.07378379844078764
-0.10001567390416088
-0.10518127229831714
-0.10385296485072257
-0.10231052801461571
-0.0984683216274866
-0.08473012842887978
-0.04101671791657384
0.3086317366378091
0.10164156814887018
0.05153787113639747
0.2175443433754514
0.44228040793678897
0.5270414712544882
-0.10168036653151288
-0.09715932320766865
-0.1023372846229948
-0.0837700066709018
-0.09657556246328645
-0.07315791418352659
-0.011102327650564745
-0.04907507931774445
0.11625277766401722
0.320258229894844
0.411595958655359
0.49215553311971116
0.13340677182147526
2.2562437466197687
2.4658842148353304
0.31620104478564687
0.007045941761295568
-0.3199528326173293
0.43353010341525994
-0.10230954767822258
-0.09981884024437837
-0.10035371802636994
-0.09159326975133301
-0.08708221541499658
-0.0687861153312007
-0.046483303423661644
0.04641118695736756
0.21338885459799517
0.041510521744472006
-0.1429973079250213
-0.11677288635379858
-0.1237611951080534
-0.10620445993976434
0.8926160215186898
0.5831067609991638
-0.03178275469102373
0.237937206722683
0.14188665746086396
0.45922610610411585
0.2220384809852702
0.06507796700486429
-0.0985795679624822
0.38847507772259976
-0.030156942426882064
-0.4175139088521582
-0.15089691668582164
0.03283307489828456
0.27463727441401026
-0.10461649294239882
-0.10806434631117297
-0.10490610192115322
-0.11263371908475885
-0.10508948352883547
-0.11291175051447457
-0.08229300621051654
-0.07287632477877343
0.8282370826616987
0.6979119990898616
-0.20066822436977344
-0.09797116703979672
-0.14243482956134826
-0.2098549195431637
-0.11468425978703124
0.3229199860505817
0.4004661603616801
0.5455847679275162
0.5182087427673319
-0.3007930965774315
0.3759623336538315
0.46729198944577477
-0.10188333043098373
-0.10167020728877818
-0.10038502888632314
-0.09788823852608695
-0.10072764795166494
-0.0973125371945757
-0.0862290153949176
-0.0935173554632774
-0.09022641064288127
-0.07755275573284336
-0.07432039418830258
-0.05635099743038491
-0.024297351220660027
-0.05648791946044539
0.023012124132686072
0.08694559798797243
0.2687318303428064
0.1705322541936112
-0.6002055555299302
-0.5404004018250979
2.3324891610289042
1.9952133237029723
-0.014257358257111882
-0.23526584134421194
-0.12196078555388334
0.16889580909710925
-1.0064285288195713
0.26576571578377023
0.18013718698829398
0.03905086595744674
0.10135564260764984
0.34736219757742826
-0.008684319433385752
0.3932823963553889
0.21971500681310957
0.3663367858580042
0.5347506766798614
0.7167242441754776
0.4231117937836374
0.49705399018449625
0.3221079645694054
0.21875178330316442
0.12751921382570214
0.05384393202721923
-0.001632289407267908
-0.041511911537854634
-0.06558852475627254
-0.04119317858429404
-0.08058918603645088
-0.06759113275460371
-0.08430334729572013
-0.09009150161056091
-0.09402489188980524
-0.09918920921064615
-0.09583184570148152
-0.0992206460615053
-0.10139490963264434
-0.10184361018263187
-0.10108341547588255
0.013839356929891097
0.1397075657386297
0.30797848305536135
-0.2698286969821971
0.09687450540951267
0.6181302600907276
0.5377275131535627
2.8036412452503097
1.9883210013753116
0.3871698791909218
0.4280201239647987
0.47752159428480023
0.004780602877381171
0.30695853228343206
-0.024649601417448236
-0.2824246628811168
0.5891893005306731
0.512402115200333
0.07569952319704275
-0.10322246033939712
-0.10472312725844987
-0.10084273199471969
-0.10382419510771854
-0.0930674317902108
-0.08988417114111102
-0.07166214312225577
-0.04160908274363496
0.3094423826476245
0.03395512404650684
1.265000153518571
1.4602339632994006
0.2655939521601204
0.09019050065476573
0.1803862359443739
0.41485591046504366
-0.10536896234200258
-0.10433930004136138
-0.11013665880684104
-0.1044876029387471
-0.11189194718549639
-0.09790551172272155
-0.09883423320835247
-0.02803120503109056
0.1441547257643795
5.320999423522967
5.209113620692119
-0.012093327462034452
2.094004461099771
0.4859303617038249
-0.10265782143727442
-0.10312143451265768
-0.10135356152115457
0.4010911438374107
-0.09984342182238175
-0.10269515361991459
-0.10099102633456701
-0.09589104253010396
-0.09127527609037041
-0.09484443756196195
-0.0866706051941246
-0.07952305265404544
-0.06724861033823466
-0.06522696168978198
-0.04217311600915402
0.011130154370098228
0.48724962629710916
0.06049584217655449
0.1628178051443579
0.24343739592451677
-0.06948058667180287
0.22266343542228678
0.06925833771019772
0.1491575845898998