# vtk DataFile Version 1.0
2D Simulation C++
ASCII
DATASET UNSTRUCTURED_GRID
FIELD FieldData 1
NODES 1 2 int
348 601

POINTS 348 double
0.0 0.5 0.0
0.0 1.0 0.0
2.0 1.0 0.0
2.0 0.5 0.0
0.0 0.528801679611206 0.0
0.0 0.564507782459259 0.0
0.0 0.6110168099403381 0.0
0.0 0.6721802353858948 0.0
0.0 0.7528436183929443 0.0
0.0 0.8593378663063049 0.0
0.16666941344738007 1.0 0.0
0.3333356976509094 1.0 0.0
0.5000020265579224 1.0 0.0
0.6666678786277771 1.0 0.0
0.8333337306976318 1.0 0.0
1.0 1.0 0.0
1.1666662693023682 1.0 0.0
1.3333321809768677 1.0 0.0
1.4999979734420776 1.0 0.0
1.6666642427444458 1.0 0.0
1.8333306312561035 1.0 0.0
2.0 0.8593378663063049 0.0
2.0 0.7528436183929443 0.0
2.0 0.6721802353858948 0.0
2.0 0.6110168099403381 0.0
2.0 0.564507782459259 0.0
2.0 0.528801679611206 0.0
0.029850948601961136 0.5 0.0
0.05970168858766556 0.5 0.0
0.08955242484807968 0.5 0.0
0.1194031685590744 0.5 0.0
0.14925390481948853 0.5 0.0
0.17910465598106384 0.5 0.0
0.20895539224147797 0.5 0.0
0.2388061285018921 0.5 0.0
0.2686568796634674 0.5 0.0
0.29850760102272034 0.5 0.0
0.32835835218429565 0.5 0.0
0.35820910334587097 0.5 0.0
0.3880598247051239 0.5 0.0
0.4179105758666992 0.5 0.0
0.44776129722595215 0.5 0.0
0.47761204838752747 0.5 0.0
0.5074627995491028 0.5 0.0
0.5373135209083557 0.5 0.0
0.5671642422676086 0.5 0.0
0.5970150232315063 0.5 0.0
0.6268657445907593 0.5 0.0
0.6567164659500122 0.5 0.0
0.6865672469139099 0.5 0.0
0.7164179682731628 0.5 0.0
0.7462686896324158 0.5 0.0
0.7761194705963135 0.5 0.0
0.8059701919555664 0.5 0.0
0.8358209133148193 0.5 0.0
0.865671694278717 0.5 0.0
0.89552241563797 0.5 0.0
0.9253731369972229 0.5 0.0
0.9552239179611206 0.5 0.0
0.9850746393203735 0.5 0.0
1.0149253606796265 0.5 0.0
1.0447760820388794 0.5 0.0
1.0746268033981323 0.5 0.0
1.1044776439666748 0.5 0.0
1.1343283653259277 0.5 0.0
1.1641790866851807 0.5 0.0
1.1940298080444336 0.5 0.0
1.2238805294036865 0.5 0.0
1.2537312507629395 0.5 0.0
1.2835819721221924 0.5 0.0
1.3134328126907349 0.5 0.0
1.3432835340499878 0.5 0.0
1.3731342554092407 0.5 0.0
1.4029849767684937 0.5 0.0
1.4328356981277466 0.5 0.0
1.4626864194869995 0.5 0.0
1.492537260055542 0.5 0.0
1.522387981414795 0.5 0.0
1.5522387027740479 0.5 0.0
1.5820894241333008 0.5 0.0
1.6119401454925537 0.5 0.0
1.6417908668518066 0.5 0.0
1.6716417074203491 0.5 0.0
1.701492428779602 0.5 0.0
1.731343150138855 0.5 0.0
1.761193871498108 0.5 0.0
1.7910445928573608 0.5 0.0
1.8208953142166138 0.5 0.0
1.8507460355758667 0.5 0.0
1.8805968761444092 0.5 0.0
1.910447597503662 0.5 0.0
1.940298318862915 0.5 0.0
1.970149040222168 0.5 0.0
1.7358819246292114 0.7499510645866394 0.0
0.2656642198562622 0.7486277222633362 0.0
0.49981194734573364 0.737183690071106 0.0
0.74151611328125 0.7359843254089355 0.0
0.9774143695831299 0.7371892929077148 0.0
1.201690912246704 0.7367381453514099 0.0
1.447761058807373 0.7383390665054321 0.0
1.8591958284378052 0.6421071290969849 0.0
0.14080412685871124 0.6421071290969849 0.0
1.588537573814392 0.6783608794212341 0.0
0.2553686201572418 0.6221352219581604 0.0
1.7466964721679688 0.6278358101844788 0.0
0.38199201226234436 0.6273008584976196 0.0
0.5013589859008789 0.6272794008255005 0.0
0.6207823157310486 0.6272526383399963 0.0
0.7401852607727051 0.627252459526062 0.0
0.8595882654190063 0.6272523999214172 0.0
0.9701492786407471 0.6212864518165588 0.0
1.0807102918624878 0.6272523999214172 0.0
1.2001131772994995 0.6272523999214172 0.0
1.3195161819458008 0.6272523999214172 0.0
1.4488563537597656 0.6310953497886658 0.0
1.9247323274612427 0.5706554055213928 0.0
0.07526770234107971 0.5706554055213928 0.0
1.5377081632614136 0.5910930037498474 0.0
1.6566967964172363 0.5934624075889587 0.0
1.8074009418487549 0.5708622932434082 0.0
0.1940300166606903 0.5737577676773071 0.0
1.0286364555358887 0.5665481686592102 0.0
1.14803946018219 0.5665481686592102 0.0
0.9116620421409607 0.5665481686592102 0.0
1.2674424648284912 0.5665481686592102 0.0
0.7922590970993042 0.5665481686592102 0.0
0.6728560328483582 0.5665482878684998 0.0
0.5534531474113464 0.5665481686592102 0.0
1.3892061710357666 0.5727682709693909 0.0
0.43402159214019775 0.5665869116783142 0.0
0.3146642744541168 0.5667200088500977 0.0
1.8656742572784424 0.5607567429542542 0.0
0.1343258023262024 0.5607567429542542 0.0
1.5970147848129272 0.5642029047012329 0.0
1.8783670663833618 0.7786769866943359 0.0
0.12163297086954117 0.7786769866943359 0.0
1.7164177894592285 0.562579333782196 0.0
1.4776118993759155 0.5620538592338562 0.0
1.5857784748077393 0.867691159248352 0.0
0.25373148918151855 0.5588531494140625 0.0
0.9701492786407471 0.5582930445671082 0.0
1.0895521640777588 0.5582930445671082 0.0
0.8507462739944458 0.5582930445671082 0.0
1.20895516872406 0.5582930445671082 0.0
0.7313433289527893 0.5582930445671082 0.0
1.3283581733703613 0.5582930445671082 0.0
0.6119403839111328 0.5582930445671082 0.0
0.49253740906715393 0.5582930445671082 0.0
0.37313446402549744 0.5582956075668335 0.0
0.36864349246025085 0.7376502752304077 0.0
0.602456271648407 0.7355343103408813 0.0
0.8441241383552551 0.7366551756858826 0.0
1.3355978727340698 0.7366551160812378 0.0
1.0895521640777588 0.7378703355789185 0.0
0.07051979005336761 0.6486480832099915 0.0
1.9294801950454712 0.6486480832099915 0.0
1.5086064338684082 0.6743985414505005 0.0
1.6785967350006104 0.6649783849716187 0.0
1.9543375968933105 0.5452249050140381 0.0
0.04566239193081856 0.5452249050140381 0.0
1.6567095518112183 0.5496091842651367 0.0
1.53738272190094 0.5491842031478882 0.0
0.91306072473526 0.8965699672698975 0.0
1.7782752513885498 0.5446287989616394 0.0
1.4163299798965454 0.5447981357574463 0.0
0.4287482798099518 0.8945969939231873 0.0
1.2610714435577393 0.8950135707855225 0.0
0.4313095211982727 0.6832783222198486 0.0
0.31561949849128723 0.6858259439468384 0.0
1.029850721359253 0.6781684160232544 0.0
0.9082015752792358 0.6848641633987427 0.0
1.1492537260055542 0.6781684160232544 0.0
0.7886138558387756 0.678956151008606 0.0
1.2709345817565918 0.684736430644989 0.0
0.6685023903846741 0.6868807673454285 0.0
1.4007169008255005 0.6702371835708618 0.0
0.5483440160751343 0.6792802214622498 0.0
0.19808045029640198 0.6887137293815613 0.0
1.797759771347046 0.6853783130645752 0.0
0.6811949610710144 0.8757594227790833 0.0
1.0189321041107178 0.8474968671798706 0.0
0.7922950983047485 0.8446238040924072 0.0
1.3765455484390259 0.8590760827064514 0.0
1.1571698188781738 0.8478953838348389 0.0
1.8954496383666992 0.5359624624252319 0.0
1.8360060453414917 0.5359931588172913 0.0
0.10455036163330078 0.5359624624252319 0.0
0.16417928040027618 0.5353734493255615 0.0
0.5530290007591248 0.8422092199325562 0.0
0.2832632064819336 0.5367912650108337 0.0
0.22469767928123474 0.5394234657287598 0.0
0.9405550956726074 0.5357381105422974 0.0
0.9997434020042419 0.5357381105422974 0.0
1.0600273609161377 0.5365630984306335 0.0
1.1191463470458984 0.5357381105422974 0.0
0.8802711367607117 0.5365630984306335 0.0
0.8211521506309509 0.5357381105422974 0.0
1.2385493516921997 0.5357381105422974 0.0
1.179430365562439 0.5365630984306335 0.0
0.7608681321144104 0.5365630984306335 0.0
0.7017492055892944 0.5357381105422974 0.0
1.2988333702087402 0.5365630984306335 0.0
1.357560396194458 0.5390686392784119 0.0
0.5823462605476379 0.5357381105422974 0.0
0.6414651870727539 0.5365630984306335 0.0
0.5220622420310974 0.5365630984306335 0.0
0.4629422128200531 0.535739541053772 0.0
0.3435409665107727 0.5357455015182495 0.0
0.4026572108268738 0.5365669131278992 0.0
0.21006634831428528 0.8590372204780579 0.0
1.7943172454833984 0.8627070188522339 0.0
0.06134982034564018 0.7191494703292847 0.0
1.938650131225586 0.7191494703292847 0.0
1.634666085243225 0.7584379315376282 0.0
0.3355695903301239 0.8387951850891113 0.0
1.537941336631775 0.7633647918701172 0.0
1.9670078754425049 0.574067234992981 0.0
0.032992132008075714 0.574067234992981 0.0
1.6862140893936157 0.5314788222312927 0.0
1.6272135972976685 0.5317342281341553 0.0
1.5077245235443115 0.5309156775474548 0.0
1.5668202638626099 0.5316618084907532 0.0
1.7466963529586792 0.5298213958740234 0.0
1.4473658800125122 0.5297333002090454 0.0
1.804386019706726 0.5275400876998901 0.0
1.9283779859542847 0.5282225012779236 0.0
1.8656879663467407 0.5267112255096436 0.0
0.13432854413986206 0.5271331071853638 0.0
0.07162196189165115 0.5282225012779236 0.0
0.25373148918151855 0.527070939540863 0.0
0.19419340789318085 0.5297109484672546 0.0
0.31349387764930725 0.5272363424301147 0.0
0.37313446402549744 0.5270199179649353 0.0
0.4329495429992676 0.5274069309234619 0.0
0.49253740906715393 0.5270196795463562 0.0
0.5523557066917419 0.5274024605751038 0.0
1.3898069858551025 0.5277745127677917 0.0
1.3283581733703613 0.5270196795463562 0.0
0.6119403839111328 0.5270196795463562 0.0
1.2685397863388062 0.5274024605751038 0.0
0.6717586517333984 0.5274024605751038 0.0
0.7313433289527893 0.5270196795463562 0.0
1.20895516872406 0.5270196795463562 0.0
0.7911616563796997 0.5274024605751038 0.0
0.8507462739944458 0.5270196795463562 0.0
1.1491369009017944 0.5274024605751038 0.0
1.0895521640777588 0.5270196795463562 0.0
0.9105646014213562 0.5274024605751038 0.0
0.9701492786407471 0.5270196795463562 0.0
1.0297338962554932 0.5274024605751038 0.0
1.4776118993759155 0.5259945392608643 0.0
1.597015619277954 0.5255197882652283 0.0
1.7164177894592285 0.525999903678894 0.0
1.6834615468978882 0.8477573990821838 0.0
1.5822722911834717 0.6086509227752686 0.0
0.20459823310375214 0.6270732283592224 0.0
1.8037469387054443 0.6209055185317993 0.0
0.09990309923887253 0.8589919805526733 0.0
1.9000968933105469 0.8589919805526733 0.0
1.75603187084198 0.5789161324501038 0.0
0.10896337777376175 0.5982794761657715 0.0
1.8910366296768188 0.5982794761657715 0.0
1.4950518608093262 0.605266273021698 0.0
1.7049394845962524 0.6007562279701233 0.0
1.4387125968933105 0.5775743722915649 0.0
1.489302158355713 0.851039469242096 0.0
0.15732239186763763 0.5961292386054993 0.0
1.8436260223388672 0.5944437384605408 0.0
0.4399496018886566 0.6259797215461731 0.0
1.022565245628357 0.6257523894309998 0.0
[...]
POINT_DATA 348
SCALARS Psi double
LOOKUP_TABLE default
1.0878984745059208
1.0
1.0
1.0766684692566433
1.0877880062308767
1.0875451104726974
1.0891468084440872
1.0938728055775018
1.1033510760286014
1.141821749179055
1.0
1.0
1.0
1.0
1.0
1.0
1.0
1.0
1.0
1.0
1.0
1.1342685463948645
1.0942751242409663
1.084475035483183
1.0798819113724079
1.0777145537983457
1.0768590541920275
1.0879812890902085
1.0867118737203683
1.0848223047273027
1.082420799961279
1.0794798105856396
1.0760237479536197
1.0721218737328357
1.0678672938765676
1.0633834607860406
1.0587584764216098
1.0540920620728202
1.0494630468909567
1.0449565223378627
1.0406243933955655
1.0364944248356247
1.0325996192880929
1.0289672844690572
1.0256109400015752
1.0225183845118488
1.0196944968263228
1.017138190673538
1.0148448620382111
1.0127905844151879
1.010968779186522
1.0093691715629352
1.0079826246132673
1.0067887562643634
1.005780375975831
1.0049494028548869
1.0042890027962383
1.003786664641809
1.0034382993190767
1.0032411995659956
1.0031934442639991
1.003291448178428
1.0035346311375275
1.0039285742433697
1.0044762170590085
1.00518078189827
1.0060462357462003
1.0070859529070204
1.008306272464419
1.009714470003163
1.011316260526927
1.01313455284583
1.0151740580343664
1.01743097004936
1.0199346785756118
1.0226764930901477
1.0256555034855526
1.028872214843616
1.0323240682515762
1.0359903891850175
1.0398395377927843
1.0438338440270747
1.047925536345238
1.0520543032562284
1.0561439082955961
1.0601072579917985
1.0638381740187945
1.0672402127748204
1.070204758710059
1.0726291927367764
1.0744756476863007
1.0757491274576885
1.0764613444357802
1.046786711109748
1.0518854974995306
1.0201199545674675
1.0058086488405256
1.0016730890732306
1.003643948714465
1.0139159671409281
1.073368257084722
1.082112746639535
1.0311074484642158
1.0635343109924538
1.0566896057905444
1.0425530035947308
1.0268241535057554
1.0156243623884167
1.0084497788026185
1.0043633587493634
1.0028457867716813
1.0030421303403592
1.0054010944040013
1.0102988518924465
1.0190457071421446
1.0762815970208381
1.0856765450456418
1.0292513434324884
1.0445295116975002
1.0659083918864354
1.0740341916067164
1.0030690600136982
1.004581156625482
1.0038189305409817
1.0086117114269166
1.007031564622474
1.0132384594371597
1.0232041804416927
1.0157540903958484
1.0374860201990468
1.0554784179709258
1.0719808302860099
1.0811616401265014
1.0372069616075068
1.0782438794756344
1.0863580194891458
1.0536728172764953
1.0235734735172644
1.0130768691662628
1.065254610094949
1.003197052473013
1.003579888193565
1.0051657431279097
1.006342712997287
1.0098477968555477
1.011873277050545
1.0179114426599638
1.0300947466121233
1.0464794892479892
1.0356947694515584
1.0123546184430512
1.0031387426964251
1.0079927420496277
1.0019375177825482
1.0902638557374298
1.0807843178728138
1.0226367967517487
1.044579793151836
1.0766486529924715
1.0869297742305155
1.0454993564028177
1.0301804044160823
1.0004324779457148
1.0622233994945984
1.018259312227958
1.010523864373767
1.0014801910947346
1.0321300518410084
1.0494026491767947
1.0022866924228713
1.0028325832447529
1.003548759332402
1.005618481713381
1.0068375194662313
1.0105844966847433
1.0140169693415868
1.0195846246205815
1.0716959174673113
1.063540204139434
1.003369088874759
1.000551528926602
1.0019091530081192
1.0044737988317909
1.0011770794818953
1.0738826786534972
1.0689326686853922
1.0837058532098676
1.0778577788647918
1.0080518454116598
1.0609556648016003
1.0698224662033173
1.0035449095528775
1.003156898113382
1.0033514355710726
1.0041283491621877
1.0045480023594864
1.0061844091927725
1.0075849559331447
1.0055370177879113
1.0085721333130875
1.0117220718823794
1.0104033157148808
1.013927017822793
1.0208731770420276
1.0158334216377238
1.0270743050415654
1.034252173226319
1.0515054291938841
1.0425620823574007
1.0395567065611535
1.036211233941122
1.098043592003914
1.0884747659977323
1.0302226293673078
1.026617748446219
1.019376448788733
1.0777981806244408
1.0869960836179284
1.0498144934644735
1.041708105056084
1.0271153359102425
1.0339262736258126
1.0581499446394116
1.0211277923836952
1.0654241818171066
1.075478572049121
1.0715896555247884
1.0810291667557053
1.0859076136182302
1.065560421402883
1.074071786164102
1.05628429585388
1.0470323712778846
1.0383626599147873
1.030604475212458
1.023898083915262
1.016320485811623
1.0121235364305832
1.0182792587005507
1.0089275203721781
1.013700677872186
1.0100775781267834
1.0065003902887615
1.007310283235067
1.0053049710572757
1.0047733073656635
1.0036843055083058
1.0039874088494403
1.003294880301143
1.003199689931521
1.0240373575828994
1.0377827111537745
1.0540276655971688
1.024732127925459
1.0340237284795002
1.0720977954053788
1.0654174776673144
1.076679888502809
1.0694555700113673
1.0590427058656982
1.084187003858447
1.0751055971259473
1.0242340643880592
1.051239823873972
1.0196470454202295
1.0091319940554677
1.0790605294258215
1.070403240157365
1.0344440063442961
1.002701771723289
1.003311606665362
1.003983336408576
1.006144247240411
1.0075903524984575
1.0117379897082437
1.0131967721968627
1.0208948219763416
1.0530712580073518
1.026904450074402
1.0769456125866195
1.0853521982253418
1.0490327200726106
1.0329780828114208
1.0415769128201997
1.0531510677116227
1.0023830257252775
1.002669318805728
1.0039418911336486
1.0050219755394474
1.0079147626328113
1.009744105847925
1.0144741786151474
1.0255108295520232
1.0411378679621544
1.1079720339972998
1.0992860060360778
1.0766662395483477
1.087955370491594
1.0607630654084124
1.0029734870243041
1.0032515757368858
1.0031706622359378
1.0612209313493615
1.0037527086784623
1.004377022242906
1.0056003462581165
1.0053642798870415
1.0069008653554934
1.0083446693184113
1.0107080771129595
1.0101583380857004
1.0127990591731149
1.0154620518406472
1.0192794234283082
1.0265465388355421
1.068074896958596
1.032071649915691
1.042010080388032
1.048885479019188
1.0174362726640072
1.0457873258268315
1.0304818268431841
1.03864716577614
1.0014570165754408
1.0217583110289163
1.0389659103822064
1.0837777927920316
1.0744046642618998
1.000256912177337
1.028206227624291
1.0692428658326414
1.0781093475385588
1.0039401956853702
1.087521509319078
1.0771331067684855
1.0872136409914495
1.0783251134840626
1.0690638753648487
1.0624278431759806
1.0620060165734504
1.0185975169905457
1.0010538007721423
1.0163453081958262
1.0065916817527139
1.0761908357874141
1.0872104888628695
1.0528187222834893
1.0469710938931724

SCALARS Omega double
LOOKUP_TABLE default
4.100276591395486
-10.327730795436107
-14.268649563397657
0.13217857057174914
4.492515426470277
-2.683794553308078
-4.473557660634722
3.5422922230914438
1.0314781535196957
20.84264546033727
-8.188675201154094
-0.409472522325152
-0.8985275653939423
-0.2342139594276169
-0.11369097867136085
-0.030612111190159524
-0.11116900932410734
-0.18643504131181043
-0.6569892800264835
-0.6110339256922579
-6.115745385050821
17.943670585109444
3.512463678239277
-1.037908127011835
0.14534828365031738
0.03351225769623325
-0.3220314024806317
2.1113617298258793
1.0918367791704588
0.7143021740897256
0.5849518485731221
0.5327239424930212
0.5070780229781335
0.47819019534535684
0.44153688695109794
0.39741178056709614
0.347732685517421
0.296246395664528
0.24497892024276172
0.19618313349197608
0.15080900292461102
0.10952048225670388
0.07261347350639749
0.04033345357912911
0.012569702993089899
-0.011155351329581132
-0.031081819755352666
-0.047524590627111896
-0.060811397862207336
-0.07154132509423476
-0.08001355261642204
-0.08658310712087017
-0.09151389784999206
-0.09520530149861449
-0.09785149337483465
-0.0996730032519928
-0.10081314043691113
-0.10146383312963618
-0.10170958672119912
-0.10162686877437976
-0.10124796093657563
-0.10059290948863055
-0.0996482927435643
-0.09834303166584514
-0.09661228012447524
-0.09434272394968285
-0.0914262585374496
-0.08763222668431116
-0.08279843107413086
-0.0766884452308028
-0.06909527064199998
-0.05954731729103309
-0.04780290324996683
-0.03366497388546283
-0.016472751712208297
0.003910499114035475
0.027743081704727387
0.05530912053745422
0.08677693338047027
0.12203690492204279
0.16057613136083623
0.20168960504347563
0.2440135057808178
0.2859350888697349
0.32478694600395447
0.3576013700931708
0.37954715493405894
0.38524800492438716
0.37065562196721535
0.33000239086053607
0.26103410293994017
0.16510919313857886
0.06635078647445075
0.3151066787097456
0.33936277925755687
-0.11646412749212105
-0.13091185667442629
-0.10570544244128224
-0.11366535237417401
-0.12385496956468303
0.7178328075969845
0.8448250621504879
0.04691930011486893
0.4698816282080074
0.4081247471793545
0.16694960755828592
0.0028975471754250598
-0.073952126305086
-0.10007944145244552
-0.10519634428525247
-0.10385548595555884
-0.10230780758084614
-0.09843631749301189
-0.08460653283898399
-0.040685624540585476
0.3065098106910813
0.09488991775567024
0.05186250842975133
0.21730105434218577
0.4399174100869929
0.5280590909253149
-0.10168073739803907
-0.09715105264443194
-0.1023406554709965
-0.08372762102510686
-0.09659159909591951
-0.07320444395688046
-0.011171932718891324
-0.04893133638164775
0.11627850663337705
0.32074728071659797
0.4093844304730648
0.4908519705421206
0.13352109534941964
2.24906012006161
2.52740092868285
0.3156010861576708
0.007244176733274329
-0.3187831354448692
0.4342894838820259
-0.1023109262210827
-0.09981692806405297
-0.10036161191588626
-0.09157790155477998
-0.08711259275202571
-0.06873062135340935
-0.04655457285694922
0.04633405892939652
0.21351020278404056
0.04064205045433355
-0.1434431663938926
-0.11680355787946618
-0.12342029435511613
-0.10619346693416987
0.9676272328609736
0.5747828401966563
-0.031028869523734254
0.23799457140299649
0.14049951445146258
0.45038740922775866
0.22190937382063322
0.06523625353621798
-0.09857906644496216
0.3875232242055449
-0.030069434434410035
-0.418883988107409
-0.15081365778134956
0.0325547039429871
0.275374921409499
-0.10461616328969248
-0.10807518480278398
-0.10488149130466276
-0.11268902260608844
-0.10497213967851521
-0.11310599821853487
-0.08190653120131364
-0.07324263405403644
0.8361155033640453
0.6923071888276463
-0.20088340153447093
-0.09796264604996865
-0.1424951330113868
-0.208913139984813
-0.11464430760698219
0.3216035002334158
0.3990826750053479
0.5432661528300354
0.5181516061358893
-0.3016400703848724
0.3762588670955672
0.4676878473958496
-0.10188407620135953
-0.10167070349685983
-0.1003842107955574
-0.09788440007489027
-0.10072930314615941
-0.0973162689827356
-0.08620622829729102
-0.0935053032094873
-0.09023276549148819
-0.07756313163718012
-0.07426981170367873
-0.056273975081851974
-0.024308275533481204
-0.05649859200342279
0.023020098190727
0.08697762293821981
0.26890621586201907
0.1706292235308026
-0.619190929491774
-0.5147470841169138
2.329445225118828
1.9777754326562278
-0.011509735355367739
-0.2381694070023066
-0.1206283898845311
0.16690677657364794
-1.0217322041322336
0.2655262803328755
0.18017280045769563
0.03920614717657038
0.10148348527303734
0.3466251469721349
-0.008566668969856996
0.392091632569625
0.21860644186082365
0.3652351841192618
0.5338230402323204
0.7124939981821304
0.42341547286754666
0.49727144014901226
0.3222716188816156
0.2188035713684576
0.12752218731498893
0.053812359521175857
-0.0016606519172503737
-0.0414276504456448
-0.065540311193231
-0.041222420552529414
-0.08056138243522497
-0.06760899316182016
-0.08431587013586957
-0.09007820841111992
-0.0940310448606133
-0.09919241075173275
-0.09582606824290624
-0.09921886260678243
-0.10139610467726723
-0.10184407580574706
-0.10108332295890943
0.013962250849882485
0.13979943912240345
0.30760252635710394
-0.2638912731573779
0.09725913339108423
0.6218180596335308
0.5337798651870694
2.9039953778016607
2.1556482072658585
0.38564602074543364
0.43159595953570984
0.4734073822376629
0.005161758004360007
0.30623706254319677
-0.024410384897526338
-0.2810106959149689
0.5921227818732521
0.5085895250222221
0.07552629316157339
-0.10322296887730927
-0.10472893921779264
-0.10082993819186177
-0.10385718316140581
-0.09299651549749031
-0.08998797085806592
-0.07147385155956892
-0.041828838957404565
0.31016150189176606
0.034135990374423233
1.2523254612617873
1.4785748227905064
0.26516210034469384
0.09036934035609624
0.18033095470584343
0.4136173790001845
-0.10537196689889115
-0.104334755285919
-0.11016426596226363
-0.10444550632402672
-0.11200116001573152
-0.09772746947777017
-0.09915262606974083
-0.028490043251690574
0.14423106337711733
5.598342302591979
5.403331021629076
-0.012855761299748922
2.097569030710987
0.4888528703124121
-0.10265928973091674
-0.10312383634480166
-0.10135194605797912
0.4019968996810388
-0.09983805538478337
-0.1027029764736784
-0.10100566888395032
-0.09587048404946469
-0.09124247914476137
-0.0948781930312788
-0.08672286982800352
-0.07944071603574118
-0.0671369087275151
-0.06531830849044734
-0.04228617850092704
0.010999425356937455
0.48867830817111363
0.060394918391829866
0.16287202191328057
0.24370900185569455
-0.06902117037216743
0.22262509022680088
0.06938332803352554
0.14914127614684738
-0.10985028243037864
-0.168299378466867
0.15224910600440475
0.38217091777785667
0.37518986524020626
-0.08900149604134915
0.032410881777235785
0.4400053669957749
0.5321896093696535
-0.134092980904889
0.4668976837182655
0.011219789281140976
-0.5101373601020367
0.34085160636952844
1.0203185730901576
0.9271598518390987
0.3733238666502802
-0.0262225018307469
-0.17256911002194558
-0.05296720420535841
-0.1661729546622743
0.1185608031848569
1.248211826242416
0.5729328676154022
-1.216772112487444

SCALARS Vx_analytic double
LOOKUP_TABLE default
4.100276591395486
-10.327730795436107
-14.268649563397657
0.13210637964733823
4.492515426470277
-2.683794553308078
-4.473557660634722
3.5422922230914438
1.0314781535196957
20.84264546033727
-8.188675201154094
-0.409472522325152
-0.8985275653939423
-0.2342139594276169
-0.11369097867136085
-0.030612111190159524
-0.11116900932410734
-0.18643504131181043
-0.6569892800264833
-0.6110339256922579
-6.115745385050821
17.943670585109444
3.5132646958975844
-1.0157705221643218
0.14755553987795794
0.03451969899768269
-0.32007619909092955
2.1113617298258793
1.0918367791704588
0.7143021740897256
0.5849518485731221
0.5327239424930212
0.5070780229781335
0.47819019534535684
0.44153688695109794
0.39741178056709614
0.347732685517421
0.296246395664528
0.24497892024276172
0.19618313349197608
0.15080900292461102
0.10952048225670388
0.07261347350639749
0.04033345357912911
0.012569702993089899
-0.011155351329581132
-0.031081819755352666
-0.047524590627111896
-0.060811397862207336
-0.07154132509423476
-0.08001355261642204
-0.08658310712087017
-0.09151389784999206
-0.09520530149861449
-0.09785149337483465
-0.0996730032519928
-0.10081314043691113
-0.10146383312963618
-0.10170958672119912
-0.10162686877437976
-0.1012478276505487
-0.1005929420419456
-0.09964845504937916
-0.09834350190109899
-0.09661312131879402
-0.09434451871860537
-0.0914286187045847
-0.08763597043768842
-0.08280334278890719
-0.07669661379637681
-0.0691049613482531
-0.05956144851390915
-0.04782298754005739
-0.033672460396419024
-0.016485391452379452
0.003888409509778027
0.027721518384712315
0.055297474114427696
0.08676827989982512
0.12202034388196235
0.1605745305573922
0.20170954643103614
0.24406643450331686
0.28600158380066015
0.3248965446907743
0.3577128693745137
0.3797278569292148
0.38560071590681605
0.3710283160670945
0.3304074131023567
0.2613683054363732
0.16535185060585597
0.06630766750229354
0.307289028217966
0.337170614520924
-0.11573714656013476
-0.13079943948012848
-0.10570535512391184
-0.11372780229948219
-0.12456353024137555
0.7269997387825763
0.8347617254271241
0.04600727050653641
0.46799101154747447
0.4105073469606066
0.16692146289100096
0.003136668823905815
-0.07378379845270498
-0.10001567391903102
-0.10518127231498899
-0.10385296486821921
-0.10231052803076458
-0.09846832164148601
-0.08473012843988473
-0.041016717923836675
0.30863173663677973
0.10164156815115528
0.0515378711298607
0.21754434337178633
0.44228040793502527
0.5270414712544056
-0.10168036655234336
-0.09715932322659869
-0.10233728464411383
-0.08377000668667416
-0.09657556248298091
-0.07315791420021749
-0.011102327663135724
-0.049075079329423975
0.1162527776560511
0.32025822989122427
0.4115959586539759
0.4921555331208635
0.133406771815816
2.256243746621559
2.4658842148377054
0.3162010447825494
0.007045941752138747
-0.31995283261096036
0.4335301034134849
-0.10230954769969955
-0.09981884026471864
-0.10035371804727239
-0.09159326976904247
-0.08708221543359473
-0.06878611534530436
-0.04648330343857627
0.04641118694696164
0.21338885459220633
0.04151052174497267
-0.1429973079278395
-0.11677288635863589
-0.12376119510985187
-0.10620445994408427
0.8926160215205488
0.5831067609988996
-0.03178275469461251
0.23793720672139268
0.1418866574597391
0.4592261061067895
0.22203848098081805
0.06507796699727657
-0.09857956794858322
0.38847507772024875
-0.030156942438430933
-0.41751390884503375
-0.1508969166740624
0.03283307489491456
0.2746372744133521
-0.10461649295414661
-0.10806434632248894
-0.10490610193156442
-0.11263371909575236
-0.10508948353649743
-0.11291175052287128
-0.08229300621660211
-0.07287632478518555
0.8282370826629063
0.6979119990900486
-0.20066822435964102
-0.09797116703088377
-0.14243482955312547
-0.20985491953466953
-0.11468425977836003
0.32291998604921274
0.40046616035990906
0.5455847679291771
0.518208742767762
-0.30079309657106884
0.3759623336509358
0.46729198944468175
-0.10188333045338854
-0.10167020731102826
-0.10038502890796208
-0.09788823854675371
-0.10072764797373793
-0.09731253721591042
-0.08622901541256396
-0.09351735548254952
-0.09022641066298534
-0.07755275575139003
-0.07432039420404235
-0.05635099744409803
-0.024297351235117812
-0.05648791947704131
0.023012124120605982
0.0869455979782791
0.26873183033779907
0.1705322541863475
-0.6002055555256615
-0.5404004018209168
2.3324891610305682
1.9952133237033047
-0.01425735825522576
-0.235265841339602
-0.12196078555212365
0.16889580909645244
-1.006428528816387
0.26576571577975844
0.18013718698293663
0.03905086594865109
0.10135564260066368
0.3473621975745053
-0.008684319444193874
0.39328239635324913
0.21971500681182696
0.3663367858564267
0.5347506766809266
0.7167242441776707
0.42311179378164104
0.4970539901841827
0.32210796456542834
0.21875178329698983
0.1275192138171501
0.053843932016246175
-0.0016322894206622495
-0.04151191155064623
-0.06558852477115125
-0.04119317859995436
-0.08058918605330707
-0.06759113277234637
-0.08430334731521691
-0.09009150162918331
-0.09402489191072898
-0.09918920923254539
-0.09583184572164782
-0.09922064608284745
-0.10139490965510115
-0.10184361020514857
-0.10108341549804412
0.013839356920071329
0.13970756573243934
0.3079784830519061
-0.2698286969773543
0.09687450540464777
0.6181302600909457
0.537727513152494
2.803641245253298
1.9883210013783317
0.3871698791886577
0.42802012396648903
0.4775215942839034
0.004780602870160527
0.30695853228079967
-0.024649601427368294
-0.28242466287450424
0.5891893005315118
0.5124021151991526
0.07569952319076065
-0.10322246035633555
-0.10472312727565486
-0.10084273201007138
-0.10382419512380381
-0.09306743180288246
-0.08988417115472741
-0.07166214313221159
-0.041609082753824016
0.30944238264525137
0.03395512403854166
1.2650001535191349
1.4602339633011883
0.26559395215650206
0.09019050064835202
0.1803862359396079
0.4148559104648649
-0.10536896235447404
-0.10433930005249689
-0.11013665881849084
-0.10448760294827673
-0.1118919471958643
-0.09790551172982433
-0.0988342332162879
-0.028031205036258285
0.1441547257621729
5.320999423523972
5.2091136206937145
-0.012093327463687308
2.094004461102241
0.4859303617038354
-0.10265782145730935
-0.10312143453262144
-0.10135356154035437
0.40109114383528305
-0.09984342184098029
-0.10269515363957579
-0.10099102635380955
-0.09589104254706066
-0.09127527610624923
-0.09484443757977205
-0.0866706052109217
-0.07952305266772566
-0.06724861035058413
-0.06522696170435874
-0.04217311602228847
0.011130154359657172
0.4872496262961725
0.060495842167757385
0.16281780513829763
0.24343739591994215
-0.06948058667620313
0.2226634354175782