# vtk DataFile Version 1.0
2D Simulation C++
ASCII
DATASET UNSTRUCTURED_GRID
FIELD FieldData 1
NODES 1 2 int
348 601

POINTS 348 double
0.0 0.5 0.0
0.0 1.0 0.0
2.0 1.0 0.0
2.0 0.5 0.0
0.0 0.528801679611206 0.0
0.0 0.564507782459259 0.0
0.0 0.6110168099403381 0.0
0.0 0.6721802353858948 0.0
0.0 0.7528436183929443 0.0
0.0 0.8593378663063049 0.0
0.16666941344738007 1.0 0.0
0.3333356976509094 1.0 0.0
0.5000020265579224 1.0 0.0
0.6666678786277771 1.0 0.0
0.8333337306976318 1.0 0.0
1.0 1.0 0.0
1.1666662693023682 1.0 0.0
1.3333321809768677 1.0 0.0
1.4999979734420776 1.0 0.0
1.6666642427444458 1.0 0.0
1.8333306312561035 1.0 0.0
2.0 0.8593378663063049 0.0
2.0 0.7528436183929443 0.0
2.0 0.6721802353858948 0.0
2.0 0.6110168099403381 0.0
2.0 0.564507782459259 0.0
2.0 0.528801679611206 0.0
0.029850948601961136 0.5 0.0
0.05970168858766556 0.5 0.0
0.08955242484807968 0.5 0.0
0.1194031685590744 0.5 0.0
0.14925390481948853 0.5 0.0
0.17910465598106384 0.5 0.0
0.20895539224147797 0.5 0.0
0.2388061285018921 0.5 0.0
0.2686568796634674 0.5 0.0
0.29850760102272034 0.5 0.0
0.32835835218429565 0.5 0.0
0.35820910334587097 0.5 0.0
0.3880598247051239 0.5 0.0
0.4179105758666992 0.5 0.0
0.44776129722595215 0.5 0.0
0.47761204838752747 0.5 0.0
0.5074627995491028 0.5 0.0
0.5373135209083557 0.5 0.0
0.5671642422676086 0.5 0.0
0.5970150232315063 0.5 0.0
0.6268657445907593 0.5 0.0
0.6567164659500122 0.5 0.0
0.6865672469139099 0.5 0.0
0.7164179682731628 0.5 0.0
0.7462686896324158 0.5 0.0
0.7761194705963135 0.5 0.0
0.8059701919555664 0.5 0.0
0.8358209133148193 0.5 0.0
0.865671694278717 0.5 0.0
0.89552241563797 0.5 0.0
0.9253731369972229 0.5 0.0
0.9552239179611206 0.5 0.0
0.9850746393203735 0.5 0.0
1.0149253606796265 0.5 0.0
1.0447760820388794 0.5 0.0
1.0746268033981323 0.5 0.0
1.1044776439666748 0.5 0.0
1.1343283653259277 0.5 0.0
1.1641790866851807 0.5 0.0
1.1940298080444336 0.5 0.0
1.2238805294036865 0.5 0.0
1.2537312507629395 0.5 0.0
1.2835819721221924 0.5 0.0
1.3134328126907349 0.5 0.0
1.3432835340499878 0.5 0.0
1.3731342554092407 0.5 0.0
1.4029849767684937 0.5 0.0
1.4328356981277466 0.5 0.0
1.4626864194869995 0.5 0.0
1.492537260055542 0.5 0.0
1.522387981414795 0.5 0.0
1.5522387027740479 0.5 0.0
1.5820894241333008 0.5 0.0
1.6119401454925537 0.5 0.0
1.6417908668518066 0.5 0.0
1.6716417074203491 0.5 0.0
1.701492428779602 0.5 0.0
1.731343150138855 0.5 0.0
1.761193871498108 0.5 0.0
1.7910445928573608 0.5 0.0
1.8208953142166138 0.5 0.0
1.8507460355758667 0.5 0.0
1.8805968761444092 0.5 0.0
1.910447597503662 0.5 0.0
1.940298318862915 0.5 0.0
1.970149040222168 0.5 0.0
1.7358819246292114 0.7499510645866394 0.0
0.2656642198562622 0.7486277222633362 0.0
0.49981194734573364 0.737183690071106 0.0
0.74151611328125 0.7359843254089355 0.0
0.9774143695831299 0.7371892929077148 0.0
1.201690912246704 0.7367381453514099 0.0
1.447761058807373 0.7383390665054321 0.0
1.8591958284378052 0.6421071290969849 0.0
0.14080412685871124 0.6421071290969849 0.0
1.588537573814392 0.6783608794212341 0.0
0.2553686201572418 0.6221352219581604 0.0
1.7466964721679688 0.6278358101844788 0.0
0.38199201226234436 0.6273008584976196 0.0
0.5013589859008789 0.6272794008255005 0.0
0.6207823157310486 0.6272526383399963 0.0
0.7401852607727051 0.627252459526062 0.0
0.8595882654190063 0.6272523999214172 0.0
0.9701492786407471 0.6212864518165588 0.0
1.0807102918624878 0.6272523999214172 0.0
1.2001131772994995 0.6272523999214172 0.0
1.3195161819458008 0.6272523999214172 0.0
1.4488563537597656 0.6310953497886658 0.0
1.9247323274612427 0.5706554055213928 0.0
0.07526770234107971 0.5706554055213928 0.0
1.5377081632614136 0.5910930037498474 0.0
1.6566967964172363 0.5934624075889587 0.0
1.8074009418487549 0.5708622932434082 0.0
0.1940300166606903 0.5737577676773071 0.0
1.0286364555358887 0.5665481686592102 0.0
1.14803946018219 0.5665481686592102 0.0
0.9116620421409607 0.5665481686592102 0.0
1.2674424648284912 0.5665481686592102 0.0
0.7922590970993042 0.5665481686592102 0.0
0.6728560328483582 0.5665482878684998 0.0
0.5534531474113464 0.5665481686592102 0.0
1.3892061710357666 0.5727682709693909 0.0
0.43402159214019775 0.5665869116783142 0.0
0.3146642744541168 0.5667200088500977 0.0
1.8656742572784424 0.5607567429542542 0.0
0.1343258023262024 0.5607567429542542 0.0
1.5970147848129272 0.5642029047012329 0.0
1.8783670663833618 0.7786769866943359 0.0
0.12163297086954117 0.7786769866943359 0.0
1.7164177894592285 0.562579333782196 0.0
1.4776118993759155 0.5620538592338562 0.0
1.5857784748077393 0.867691159248352 0.0
0.25373148918151855 0.5588531494140625 0.0
0.9701492786407471 0.5582930445671082 0.0
1.0895521640777588 0.5582930445671082 0.0
0.8507462739944458 0.5582930445671082 0.0
1.20895516872406 0.5582930445671082 0.0
0.7313433289527893 0.5582930445671082 0.0
1.3283581733703613 0.5582930445671082 0.0
0.6119403839111328 0.5582930445671082 0.0
0.49253740906715393 0.5582930445671082 0.0
0.37313446402549744 0.5582956075668335 0.0
0.36864349246025085 0.7376502752304077 0.0
0.602456271648407 0.7355343103408813 0.0
0.8441241383552551 0.7366551756858826 0.0
1.3355978727340698 0.7366551160812378 0.0
1.0895521640777588 0.7378703355789185 0.0
0.07051979005336761 0.6486480832099915 0.0
1.9294801950454712 0.6486480832099915 0.0
1.5086064338684082 0.6743985414505005 0.0
1.6785967350006104 0.6649783849716187 0.0
1.9543375968933105 0.5452249050140381 0.0
0.04566239193081856 0.5452249050140381 0.0
1.6567095518112183 0.5496091842651367 0.0
1.53738272190094 0.5491842031478882 0.0
0.91306072473526 0.8965699672698975 0.0
1.7782752513885498 0.5446287989616394 0.0
1.4163299798965454 0.5447981357574463 0.0
0.4287482798099518 0.8945969939231873 0.0
1.2610714435577393 0.8950135707855225 0.0
0.4313095211982727 0.6832783222198486 0.0
0.31561949849128723 0.6858259439468384 0.0
1.029850721359253 0.6781684160232544 0.0
0.9082015752792358 0.6848641633987427 0.0
1.1492537260055542 0.6781684160232544 0.0
0.7886138558387756 0.678956151008606 0.0
1.2709345817565918 0.684736430644989 0.0
0.6685023903846741 0.6868807673454285 0.0
1.4007169008255005 0.6702371835708618 0.0
0.5483440160751343 0.6792802214622498 0.0
0.19808045029640198 0.6887137293815613 0.0
1.797759771347046 0.6853783130645752 0.0
0.6811949610710144 0.8757594227790833 0.0
1.0189321041107178 0.8474968671798706 0.0
0.7922950983047485 0.8446238040924072 0.0
1.3765455484390259 0.8590760827064514 0.0
1.1571698188781738 0.8478953838348389 0.0
1.8954496383666992 0.5359624624252319 0.0
1.8360060453414917 0.5359931588172913 0.0
0.10455036163330078 0.5359624624252319 0.0
0.16417928040027618 0.5353734493255615 0.0
0.5530290007591248 0.8422092199325562 0.0
0.2832632064819336 0.5367912650108337 0.0
0.22469767928123474 0.5394234657287598 0.0
0.9405550956726074 0.5357381105422974 0.0
0.9997434020042419 0.5357381105422974 0.0
1.0600273609161377 0.5365630984306335 0.0
1.1191463470458984 0.5357381105422974 0.0
0.8802711367607117 0.5365630984306335 0.0
0.8211521506309509 0.5357381105422974 0.0
1.2385493516921997 0.5357381105422974 0.0
1.179430365562439 0.5365630984306335 0.0
0.7608681321144104 0.5365630984306335 0.0
0.7017492055892944 0.5357381105422974 0.0
1.2988333702087402 0.5365630984306335 0.0
1.357560396194458 0.5390686392784119 0.0
0.5823462605476379 0.5357381105422974 0.0
0.6414651870727539 0.5365630984306335 0.0
0.5220622420310974 0.5365630984306335 0.0
0.4629422128200531 0.535739541053772 0.0
0.3435409665107727 0.5357455015182495 0.0
0.4026572108268738 0.5365669131278992 0.0
0.21006634831428528 0.8590372204780579 0.0
1.7943172454833984 0.8627070188522339 0.0
0.06134982034564018 0.7191494703292847 0.0
1.938650131225586 0.7191494703292847 0.0
1.634666085243225 0.7584379315376282 0.0
0.3355695903301239 0.8387951850891113 0.0
1.537941336631775 0.7633647918701172 0.0
1.9670078754425049 0.574067234992981 0.0
0.032992132008075714 0.574067234992981 0.0
1.6862140893936157 0.5314788222312927 0.0
1.6272135972976685 0.5317342281341553 0.0
1.5077245235443115 0.5309156775474548 0.0
1.5668202638626099 0.5316618084907532 0.0
1.7466963529586792 0.5298213958740234 0.0
1.4473658800125122 0.5297333002090454 0.0
1.804386019706726 0.5275400876998901 0.0
1.9283779859542847 0.5282225012779236 0.0
1.8656879663467407 0.5267112255096436 0.0
0.13432854413986206 0.5271331071853638 0.0
0.07162196189165115 0.5282225012779236 0.0
0.25373148918151855 0.527070939540863 0.0
0.19419340789318085 0.5297109484672546 0.0
0.31349387764930725 0.5272363424301147 0.0
0.37313446402549744 0.5270199179649353 0.0
0.4329495429992676 0.5274069309234619 0.0
0.49253740906715393 0.5270196795463562 0.0
0.5523557066917419 0.5274024605751038 0.0
1.3898069858551025 0.5277745127677917 0.0
1.3283581733703613 0.5270196795463562 0.0
0.6119403839111328 0.5270196795463562 0.0
1.2685397863388062 0.5274024605751038 0.0
0.6717586517333984 0.5274024605751038 0.0
0.7313433289527893 0.5270196795463562 0.0
1.20895516872406 0.5270196795463562 0.0
0.7911616563796997 0.5274024605751038 0.0
0.8507462739944458 0.5270196795463562 0.0
1.1491369009017944 0.5274024605751038 0.0
1.0895521640777588 0.5270196795463562 0.0
0.9105646014213562 0.5274024605751038 0.0
0.9701492786407471 0.5270196795463562 0.0
1.0297338962554932 0.5274024605751038 0.0
1.4776118993759155 0.5259945392608643 0.0
1.597015619277954 0.5255197882652283 0.0
1.7164177894592285 0.525999903678894 0.0
1.6834615468978882 0.8477573990821838 0.0
1.5822722911834717 0.6086509227752686 0.0
0.20459823310375214 0.6270732283592224 0.0
1.8037469387054443 0.6209055185317993 0.0
0.09990309923887253 0.8589919805526733 0.0
1.9000968933105469 0.8589919805526733 0.0
1.75603187084198 0.5789161324501038 0.0
0.10896337777376175 0.5982794761657715 0.0
1.8910366296768188 0.5982794761657715 0.0
1.4950518608093262 0.605266273021698 0.0
1.7049394845962524 0.6007562279701233 0.0
1.4387125968933105 0.5775743722915649 0.0
1.489302158355713 0.851039469242096 0.0
0.15732239186763763 0.5961292386054993 0.0
1.8436260223388672 0.5944437384605408 0.0
0.4399496018886566 0.6259797215461731 0.0
1.022565245628357 0.6257523894309998 0.0
[...]
POINT_DATA 348
SCALARS Psi double
LOOKUP_TABLE default
1.0878984745059148
1.0
1.0
1.0766684692566415
1.087788006230871
1.087545110472692
1.089146808444083
1.0938728055774987
1.1033510760285996
1.1418217491790545
1.0
1.0
1.0
1.0
1.0
1.0
1.0
1.0
1.0
1.0
1.0
1.1342685463948645
1.094275124240966
1.0844750354831822
1.0798819113724063
1.0777145537983441
1.0768590541920255
1.0879812890902028
1.0867118737203627
1.084822304727298
1.0824207999612747
1.0794798105856358
1.0760237479536159
1.072121873732832
1.067867293876564
1.063383460786037
1.0587584764216067
1.0540920620728178
1.0494630468909547
1.0449565223378612
1.0406243933955643
1.036494424835624
1.0325996192880926
1.028967284469057
1.025610940001575
1.0225183845118488
1.019694496826323
1.0171381906735382
1.0148448620382111
1.0127905844151877
1.0109687791865218
1.009369171562935
1.007982624613267
1.006788756264363
1.0057803759758306
1.0049494028548867
1.0042890027962383
1.0037866646418088
1.003438299319077
1.0032411995659956
1.0031934442639987
1.0032914481784272
1.003534631137526
1.0039285742433681
1.0044762170590067
1.0051807818982685
1.0060462357461988
1.0070859529070186
1.0083062724644174
1.0097144700031617
1.0113162605269261
1.0131345528458293
1.0151740580343658
1.0174309700493591
1.0199346785756112
1.0226764930901473
1.0256555034855521
1.0288722148436158
1.0323240682515762
1.035990389185018
1.0398395377927847
1.043833844027075
1.0479255363452382
1.0520543032562284
1.056143908295596
1.0601072579917985
1.0638381740187943
1.0672402127748193
1.0702047587100576
1.0726291927367746
1.0744756476862987
1.0757491274576865
1.076461344435778
1.0467867111097477
1.0518854974995289
1.0201199545674668
1.0058086488405245
1.0016730890732297
1.003643948714464
1.0139159671409277
1.0733682570847214
1.0821127466395317
1.0311074484642155
1.0635343109924507
1.0566896057905442
1.0425530035947292
1.026824153505755
1.0156243623884162
1.0084497788026177
1.0043633587493623
1.002845786771681
1.003042130340358
1.0054010944039997
1.0102988518924454
1.0190457071421446
1.076281597020837
1.0856765450456374
1.0292513434324884
1.0445295116975002
1.0659083918864347
1.0740341916067129
1.0030690600136973
1.0045811566254805
1.0038189305409813
1.008611711426915
1.007031564622473
1.0132384594371595
1.0232041804416925
1.0157540903958477
1.037486020199046
1.0554784179709231
1.0719808302860083
1.0811616401264972
1.0372069616075068
1.0782438794756344
1.0863580194891445
1.0536728172764953
1.023573473517264
1.0130768691662626
1.0652546100949456
1.003197052473013
1.0035798881935636
1.005165743127909
1.0063427129972855
1.0098477968555475
1.011873277050544
1.0179114426599638
1.0300947466121229
1.0464794892479876
1.0356947694515568
1.0123546184430505
1.003138742696424
1.007992742049627
1.0019375177825471
1.0902638557374265
1.0807843178728131
1.0226367967517485
1.044579793151836
1.07664865299247
1.08692977423051
1.0454993564028179
1.0301804044160825
1.000432477945714
1.0622233994945982
1.018259312227957
1.0105238643737664
1.0014801910947337
1.0321300518410073
1.0494026491767927
1.0022866924228702
1.002832583244752
1.0035487593324006
1.00561848171338
1.0068375194662305
1.0105844966847424
1.0140169693415864
1.0195846246205809
1.071695917467309
1.063540204139434
1.0033690888747584
1.0005515289266012
1.0019091530081183
1.0044737988317902
1.0011770794818942
1.0738826786534954
1.068932668685391
1.0837058532098631
1.077857778864788
1.008051845411659
1.060955664801597
1.0698224662033138
1.0035449095528775
1.0031568981133818
1.0033514355710715
1.0041283491621862
1.004548002359486
1.0061844091927719
1.0075849559331433
1.0055370177879097
1.008572133313087
1.0117220718823792
1.0104033157148797
1.0139270178227922
1.0208731770420276
1.0158334216377236
1.027074305041565
1.0342521732263183
1.051505429193882
1.0425620823573993
1.0395567065611526
1.036211233941122
1.0980435920039118
1.088474765997732
1.0302226293673074
1.0266177484462178
1.0193764487887325
1.0777981806244392
1.0869960836179235
1.0498144934644738
1.041708105056084
1.0271153359102423
1.0339262736258128
1.0581499446394116
1.0211277923836946
1.065424181817106
1.0754785720491191
1.0715896555247868
1.0810291667557013
1.085907613618225
1.0655604214028795
1.0740717861640983
1.0562842958538774
1.0470323712778828
1.0383626599147866
1.0306044752124575
1.0238980839152618
1.0163204858116222
1.0121235364305825
1.018279258700551
1.0089275203721768
1.0137006778721858
1.0100775781267832
1.00650039028876
1.0073102832350669
1.005304971057275
1.0047733073656615
1.0036843055083042
1.0039874088494403
1.0032948803011432
1.00319968993152
1.024037357582899
1.0377827111537747
1.0540276655971688
1.0247321279254586
1.0340237284795002
1.0720977954053756
1.0654174776673138
1.0766798885028084
1.0694555700113675
1.059042705865698
1.084187003858443
1.0751055971259462
1.0242340643880588
1.0512398238739722
1.019647045420229
1.0091319940554673
1.0790605294258178
1.0704032401573642
1.0344440063442952
1.0027017717232882
1.0033116066653611
1.0039833364085746
1.00614424724041
1.0075903524984564
1.011737989708243
1.0131967721968622
1.0208948219763412
1.0530712580073496
1.0269044500744018
1.0769456125866192
1.0853521982253396
1.0490327200726108
1.032978082811421
1.0415769128202
1.053151067711623
1.0023830257252766
1.0026693188057272
1.0039418911336477
1.0050219755394463
1.0079147626328102
1.0097441058479242
1.0144741786151468
1.0255108295520223
1.0411378679621526
1.1079720339972987
1.099286006036078
1.0766662395483457
1.0879553704915883
1.06076306540841
1.0029734870243034
1.0032515757368856
1.0031706622359366
1.0612209313493586
1.003752708678461
1.0043770222429051
1.0056003462581158
1.00536427988704
1.0069008653554918
1.0083446693184104
1.010708077112959
1.010158338085699
1.0127990591731142
1.015462051840647
1.019279423428308
1.026546538835542
1.0680748969585927
1.0320716499156908
1.0420100803880306
1.048885479019186
1.017436272664007
1.0457873258268318
1.0304818268431843
1.03864716577614
1.0014570165754397
1.0217583110289155
1.0389659103822064
1.0837777927920276
1.0744046642618983
1.0002569121773364
1.0282062276242907
1.0692428658326403
1.0781093475385548
1.003940195685369
1.0875215093190724
1.0771331067684837
1.0872136409914448
1.0783251134840612
1.0690638753648471
1.062427843175981
1.0620060165734502
1.0185975169905448
1.001053800772142
1.0163453081958258
1.006591681752713
1.0761908357874121
1.087210488862864
1.052818722283489
1.0469710938931727

SCALARS Omega double
LOOKUP_TABLE default
4.100276591395457
-10.327730795436283
-14.26864956339785
0.13217857056937285
4.492515426468428
-2.6837945533083376
-4.4735576606348495
3.5422922230915184
1.031478153519606
20.84264546033733
-8.188675201154197
-0.4094725223252204
-0.8985275653940171
-0.2342139594277061
-0.11369097867145608
-0.03061211119026881
-0.1111690093242496
-0.1864350413119551
-0.6569892800266157
-0.6110339256923939
-6.115745385050972
17.94367058510947
3.5124636782393512
-1.0379081270118415
0.14534828365006622
0.033512257695901215
-0.3220314024802477
2.1113617298253855
1.091836779170106
0.7143021740895146
0.5849518485729976
0.5327239424929486
0.507078022978091
0.47819019534533214
0.44153688695108406
0.3974117805670887
0.34773268551741726
0.2962463956645262
0.244978920242761
0.19618313349197591
0.1508090029246111
0.10952048225670404
0.07261347350639762
0.04033345357912916
0.012569702993089866
-0.011155351329581247
-0.031081819755352857
-0.04752459062711214
-0.06081139786220763
-0.07154132509423507
-0.08001355261642237
-0.08658310712087049
-0.09151389784999235
-0.09520530149861474
-0.09785149337483483
-0.09967300325199291
-0.10081314043691111
-0.10146383312963611
-0.10170958672119895
-0.10162686877437953
-0.1012479609365753
-0.10059290948863012
-0.09964829274356377
-0.0983430316658445
-0.0966122801244745
-0.09434272394968202
-0.09142625853744869
-0.08763222668431017
-0.08279843107412979
-0.07668844523080162
-0.06909527064199868
-0.05954731729103165
-0.04780290324996522
-0.033664973885461025
-0.016472751712206225
0.003910499114037863
0.027743081704730135
0.055309120537457374
0.08677693338047386
0.12203690492204682
0.16057613136084067
0.20168960504348032
0.24401350578082243
0.2859350888697389
0.32478694600395674
0.35760137009316995
0.3795471549340522
0.38524800492437034
0.3706556219671812
0.33000239086047206
0.26103410293982454
0.16510919313835726
0.06635078647384254
0.3151066787097431
0.33936277925756164
-0.11646412749211675
-0.13091185667442826
-0.10570544244128677
-0.11366535237417963
-0.12385496956468746
0.7178328075969668
0.8448250621504634
0.046919300114869576
0.46988162820800367
0.4081247471793558
0.16694960755828764
0.0028975471754264957
-0.07395212630508555
-0.10007944145244584
-0.10519634428525299
-0.10385548595555916
-0.10230780758084627
-0.09843631749301185
-0.0846065328389837
-0.04068562454058458
0.306509810690981
0.09488991775549424
0.05186250842975405
0.21730105434218983
0.4399174100869835
0.5280590909252907
-0.10168073739803879
-0.09715105264443129
-0.10234065547099659
-0.08372762102510593
-0.09659159909591977
-0.07320444395688061
-0.01117193271889109
-0.04893133638164633
0.11627850663337763
0.32074728071659653
0.4093844304730251
0.4908519705420453
0.13352109534942358
2.24906012006161
2.527400928682847
0.31560108615767407
0.007244176733276633
-0.3187831354448994
0.4342894838820175
-0.1023109262210826
-0.0998169280640525
-0.10036161191588645
-0.09157790155477918
-0.08711259275202599
-0.0687306213534082
-0.04655457285694926
0.046334058929396925
0.21351020278404062
0.040642050454338746
-0.14344316639389082
-0.11680355787946958
-0.1234202943551215
-0.10619346693417435
0.9676272328609365
0.5747828401966093
-0.03102886952373423
0.2379945714029988
0.14049951445130077
0.4503874092273639
0.22190937382063772
0.06523625353622117
-0.09857906644499924
0.38752322420554147
-0.03006943443440823
-0.4188839881074145
-0.15081365778140243
0.03255470394299049
0.275374921409502
-0.1046161632896938
-0.10807518480278537
-0.10488149130466412
-0.11268902260608939
-0.10497213967851672
-0.11310599821853465
-0.08190653120131415
-0.07324263405403439
0.8361155033640424
0.6923071888276446
-0.20088340153449086
-0.09796264604999104
-0.1424951330114002
-0.20891313998484187
-0.1146443076070083
0.3216035002333383
0.39908267500532496
0.5432661528298877
0.5181516061358379
-0.30164007038486723
0.37625886709556233
0.4676878473958328
-0.10188407620135946
-0.10167070349685957
-0.10038421079555694
-0.0978844000748896
-0.1007293031461595
-0.0973162689827358
-0.08620622829729004
-0.09350530320948647
-0.09023276549148847
-0.07756313163718041
-0.07426981170367755
-0.05627397508185055
-0.024308275533481288
-0.05649859200342301
0.02302009819072711
0.08697762293822005
0.2689062158620181
0.17062922353080268
-0.6191909294917725
-0.5147470841169351
2.3294452251188136
1.9777754326562318
-0.011509735355373033
-0.23816940700230121
-0.12062838988453833
0.1669067765734738
-1.0217322041325096
0.2655262803328799
0.1801728004577001
0.03920614717657326
0.10148348527304109
0.346625146972136
-0.008566668969854824
0.39209163256961477
0.2186064418606786
0.3652351841192165
0.5338230402322295
0.7124939981818538
0.4234154728675369
0.4972714401489812
0.3222716188816131
0.21880357136845735
0.12752218731498915
0.05381235952117601
-0.0016606519172503913
-0.04142765044564313
-0.0655403111932297
-0.04122242055252959
-0.08056138243522387
-0.06760899316182042
-0.08431587013586986
-0.090078208411119
-0.09403104486061355
-0.0991924107517329
-0.09582606824290547
-0.09921886260678187
-0.10139610467726723
-0.10184407580574689
-0.10108332295890905
0.013962250849885
0.13979943912240764
0.30760252635710716
-0.2638912731574015
0.09725913339108727
0.6218180596335199
0.5337798651870636
2.903995377801656
2.155648207265844
0.38564602074543414
0.4315959595356352
0.4734073822376129
0.005161758004361951
0.3062370625432002
-0.024410384897524583
-0.28101069591499617
0.5921227818732155
0.5085895250222014
0.07552629316157511
-0.10322296887730949
-0.10472893921779307
-0.10082993819186176
-0.10385718316140623
-0.09299651549749008
-0.0899879708580659
-0.07147385155956834
-0.041828838957403615
0.31016150189176683
0.03413599037442589
1.2523254612617807
1.478574822790498
0.26516210034469795
0.09036934035609967
0.18033095470584767
0.4136173790001851
-0.10537196689889251
-0.10433475528592037
-0.1101642659622649
-0.1044455063240282
-0.11200116001573204
-0.09772746947777147
-0.09915262606973976
-0.028490043251687875
0.14423106337712058
5.598342302591968
5.4033310216290955
-0.01285576130000918
2.0975690307102197
0.4888528703124124
-0.1026592897309167
-0.10312383634480175
-0.10135194605797888
0.4019968996810351
-0.09983805538478295
-0.10270297647367865
-0.1010056688839506
-0.09587048404946413
-0.09124247914476069
-0.0948781930312791
-0.08672286982800372
-0.07944071603574035
-0.06713690872751409
-0.06531830849044729
-0.04228617850092678
0.01099942535693812
0.48867830817110325
0.0603949183918307
0.1628720219132814
0.24370900185569483
-0.06902117037216818
0.22262509022680554
0.06938332803352887
0.14914127614685038
-0.10985028243038841
-0.16829937846686155
0.15224910600440844
0.38217091777774004
0.37518986524014064
-0.0890014960414143
0.03241088177723756
0.4400053669957533
0.532189609369608
-0.13409298090490337
0.46689768371762325
0.011219789281009857
-0.510137360102173
0.34085160636941486
1.0203185730901587
0.9271598518390964
0.3733238666502769
-0.026222501830744992
-0.17256911002199152
-0.05296720420535744
-0.1661729546622778
0.11856080318460616
1.2482118262419712
0.572932867615355
-1.216772112487512

SCALARS Vx_analytic double
LOOKUP_TABLE default
4.100276591395457
-10.327730795436283
-14.26864956339785
0.13210637964496388
4.492515426468428
-2.6837945533083376
-4.4735576606348495
3.5422922230915184
1.031478153519606
20.84264546033733
-8.188675201154197
-0.4094725223252204
-0.8985275653940171
-0.2342139594277061
-0.11369097867145608
-0.03061211119026881
-0.1111690093242496
-0.1864350413119551
-0.6569892800266155
-0.6110339256923939
-6.115745385050972
17.94367058510947
3.513264695897654
-1.0157705221643285
0.14755553987770936
0.0345196989973529
-0.3200761990905494
2.1113617298253855
1.091836779170106
0.7143021740895146
0.5849518485729976
0.5327239424929486
0.507078022978091
0.47819019534533214
0.44153688695108406
0.3974117805670887
0.34773268551741726
0.2962463956645262
0.244978920242761
0.19618313349197591
0.1508090029246111
0.10952048225670404
0.07261347350639762
0.04033345357912916
0.012569702993089866
-0.011155351329581247
-0.031081819755352857
-0.04752459062711214
-0.06081139786220763
-0.07154132509423507
-0.08001355261642237
-0.08658310712087049
-0.09151389784999235
-0.09520530149861474
-0.09785149337483483
-0.09967300325199291
-0.10081314043691111
-0.10146383312963611
-0.10170958672119895
-0.10162686877437953
-0.10124782765054818
-0.10059294204194517
-0.09964845504937858
-0.09834350190109833
-0.09661312131879335
-0.09434451871860462
-0.0914286187045837
-0.08763597043768707
-0.08280334278890612
-0.0766966137963758
-0.06910496134825156
-0.05956144851390772
-0.04782298754005579
-0.033672460396417206
-0.01648539145237741
0.0038884095097801766
0.027721518384715323
0.055297474114430895
0.08676827989982823
0.122020343881966
0.16057453055739668
0.20170954643104083
0.2440664345033215
0.28600158380066404
0.32489654469077606
0.35771286937451285
0.37972785692920763
0.38560071590680234
0.37102831606706044
0.33040741310229244
0.2613683054362577
0.16535185060563493
0.06630766750168751
0.3072890282179633
0.33717061452092895
-0.1157371465601305
-0.13079943948013045
-0.10570535512391636
-0.11372780229948785
-0.12456353024138009
0.7269997387825589
0.8347617254270979
0.04600727050653696
0.4679910115474708
0.4105073469606078
0.16692146289100263
0.00313666882390716
-0.07378379845270452
-0.1000156739190313
-0.1051812723149895
-0.10385296486821953
-0.10231052803076472
-0.09846832164148604
-0.08473012843988431
-0.04101671792383588
0.3086317366366794
0.10164156815097519
0.05153787112986332
0.21754434337179032
0.44228040793501566
0.5270414712543813
-0.1016803665523431
-0.09715932322659805
-0.10233728464411393
-0.08377000668667324
-0.09657556248298119
-0.07315791420021765
-0.011102327663135495
-0.04907507932942277
0.11625277765605153
0.32025822989122305
0.4115959586539363
0.4921555331207879
0.13340677181581992
2.25624374662156
2.465884214837703
0.31620104478255157
0.007045941752141041
-0.31995283261099106
0.43353010341347653
-0.10230954769969941
-0.09981884026471817
-0.10035371804727258
-0.09159326976904168
-0.08708221543359503
-0.06878611534530335
-0.04648330343857639
0.046411186946962106
0.2133888545922063
0.0415105217449778
-0.14299730792783774
-0.11677288635863928
-0.12376119510985734
-0.10620445994408875
0.8926160215204975
0.5831067609988575
-0.03178275469461241
0.2379372067213949
0.14188665745957604
0.45922610610638703
0.22203848098082254
0.0650779669972797
-0.09857956794862029
0.3884750777202483
-0.030156942438429136
-0.4175139088450391
-0.15089691667411512
0.032833074894917796
0.27463727441335506
-0.10461649295414793
-0.10806434632249032
-0.10490610193156581
-0.11263371909575329
-0.10508948353649897
-0.11291175052287106
-0.08229300621660274
-0.07287632478518352
0.8282370826629039
0.697911999090047
-0.20066822435966086
-0.09797116703090611
-0.14243482955313888
-0.2098549195346986
-0.11468425977838607
0.3229199860491356
0.4004661603598922
0.545584767929029
0.5182087427677103
-0.3007930965710637
0.37596233365093096
0.4672919894446649
-0.10188333045338847
-0.10167020731102797
-0.10038502890796164
-0.09788823854675305
-0.10072764797373804
-0.09731253721591064
-0.08622901541256299
-0.0935173554825487
-0.09022641066298565
-0.07755275575139034
-0.07432039420404116
-0.056350997444096634
-0.024297351235117896
-0.056487919477041515
0.023012124120606086
0.08694559797827932
0.26873183033779807
0.17053225418634765
-0.6002055555256589
-0.5404004018209451
2.3324891610305607
1.995213323703309
-0.014257358255231325
-0.2352658413395966
-0.12196078555213108
0.16889580909627874
-1.0064285288166654
0.2657657157797628
0.18013718698294107
0.03905086594865397
0.10135564260066744
0.3473621975745064
-0.008684319444191728
0.3932823963532387
0.21971500681168368
0.3663367858563814
0.534750676680835
0.7167242441773921
0.42311179378163133
0.49705399018415164
0.32210796456542584
0.21875178329698963
0.1275192138171503
0.053843932016246265
-0.0016322894206622785
-0.04151191155064456
-0.06558852477114994
-0.04119317859995459
-0.08058918605330598
-0.06759113277234664
-0.08430334731521719
-0.09009150162918238
-0.09402489191072926
-0.09918920923254554
-0.09583184572164709
-0.0992206460828469
-0.10139490965510115
-0.1018436102051484
-0.10108341549804371
0.01383935692007384
0.1397075657324435
0.3079784830519093
-0.26982869697737866
0.09687450540465077
0.6181302600909351
0.5377275131524898
2.8036412452532944
1.9883210013783135
0.3871698791886589
0.42802012396641204
0.47752159428385393
0.004780602870162446
0.30695853228080305
-0.024649601427366552
-0.28242466287453183
0.5891893005314746
0.5124021151991316
0.07569952319076223
-0.10322246035633578
-0.1047231272756553
-0.10084273201007135
-0.10382419512380425
-0.0930674318028825
-0.08988417115472738
-0.07166214313221102
-0.04160908275382315
0.30944238264525215
0.033955124038544185
1.2650001535191273
1.4602339633011803
0.2655939521565061
0.09019050064835543
0.1803862359396121
0.41485591046486536
-0.1053689623544754
-0.10433930005249828
-0.1101366588184921
-0.10448760294827825
-0.11189194719586483
-0.09790551172982573
-0.09883423321628684
-0.028031205036255617
0.14415472576217597
5.320999423523949
5.209113620693732
-0.012093327463947085
2.094004461101477
0.4859303617038358
-0.1026578214573093
-0.10312143453262156
-0.10135356154035384
0.40109114383527944
-0.09984342184097986
-0.10269515363957604
-0.10099102635380983
-0.0958910425470601
-0.09127527610624855
-0.09484443757977233
-0.08667060521092187
-0.07952305266772483
-0.06724861035058315
-0.06522696170435874
-0.04217311602228822
0.01113015435965791
0.48724962629616203
0.06049584216775816
0.16281780513829835
0.24343739591994246
-0.06948058667620392
0.2226634354175823
0.0692583377022583
0.14915758458659617