# vtk DataFile Version 1.0
2D Simulation C++
ASCII
DATASET UNSTRUCTURED_GRID
FIELD FieldData 1
NODES 1 2 int
348 601

POINTS 348 double
0.0 0.5 0.0
0.0 1.0 0.0
2.0 1.0 0.0
2.0 0.5 0.0
0.0 0.528801679611206 0.0
0.0 0.564507782459259 0.0
0.0 0.6110168099403381 0.0
0.0 0.6721802353858948 0.0
0.0 0.7528436183929443 0.0
0.0 0.8593378663063049 0.0
0.16666941344738007 1.0 0.0
0.3333356976509094 1.0 0.0
0.5000020265579224 1.0 0.0
0.6666678786277771 1.0 0.0
0.8333337306976318 1.0 0.0
1.0 1.0 0.0
1.1666662693023682 1.0 0.0
1.3333321809768677 1.0 0.0
1.4999979734420776 1.0 0.0
1.6666642427444458 1.0 0.0
1.8333306312561035 1.0 0.0
2.0 0.8593378663063049 0.0
2.0 0.7528436183929443 0.0
2.0 0.6721802353858948 0.0
2.0 0.6110168099403381 0.0
2.0 0.564507782459259 0.0
2.0 0.528801679611206 0.0
0.029850948601961136 0.5 0.0
0.05970168858766556 0.5 0.0
0.08955242484807968 0.5 0.0
0.1194031685590744 0.5 0.0
0.14925390481948853 0.5 0.0
0.17910465598106384 0.5 0.0
0.20895539224147797 0.5 0.0
0.2388061285018921 0.5 0.0
0.2686568796634674 0.5 0.0
0.29850760102272034 0.5 0.0
0.32835835218429565 0.5 0.0
0.35820910334587097 0.5 0.0
0.3880598247051239 0.5 0.0
0.4179105758666992 0.5 0.0
0.44776129722595215 0.5 0.0
0.47761204838752747 0.5 0.0
0.5074627995491028 0.5 0.0
0.5373135209083557 0.5 0.0
0.5671642422676086 0.5 0.0
0.5970150232315063 0.5 0.0
0.6268657445907593 0.5 0.0
0.6567164659500122 0.5 0.0
0.6865672469139099 0.5 0.0
0.7164179682731628 0.5 0.0
0.7462686896324158 0.5 0.0
0.7761194705963135 0.5 0.0
0.8059701919555664 0.5 0.0
0.8358209133148193 0.5 0.0
0.865671694278717 0.5 0.0
0.89552241563797 0.5 0.0
0.9253731369972229 0.5 0.0
0.9552239179611206 0.5 0.0
0.9850746393203735 0.5 0.0
1.0149253606796265 0.5 0.0
1.0447760820388794 0.5 0.0
1.0746268033981323 0.5 0.0
1.1044776439666748 0.5 0.0
1.1343283653259277 0.5 0.0
1.1641790866851807 0.5 0.0
1.1940298080444336 0.5 0.0
1.2238805294036865 0.5 0.0
1.2537312507629395 0.5 0.0
1.2835819721221924 0.5 0.0
1.3134328126907349 0.5 0.0
1.3432835340499878 0.5 0.0
1.3731342554092407 0.5 0.0
1.4029849767684937 0.5 0.0
1.4328356981277466 0.5 0.0
1.4626864194869995 0.5 0.0
1.492537260055542 0.5 0.0
1.522387981414795 0.5 0.0
1.5522387027740479 0.5 0.0
1.5820894241333008 0.5 0.0
1.6119401454925537 0.5 0.0
1.6417908668518066 0.5 0.0
1.6716417074203491 0.5 0.0
1.701492428779602 0.5 0.0
1.731343150138855 0.5 0.0
1.761193871498108 0.5 0.0
1.7910445928573608 0.5 0.0
1.8208953142166138 0.5 0.0
1.8507460355758667 0.5 0.0
1.8805968761444092 0.5 0.0
1.910447597503662 0.5 0.0
1.940298318862915 0.5 0.0
1.970149040222168 0.5 0.0
1.7358819246292114 0.7499510645866394 0.0
0.2656642198562622 0.7486277222633362 0.0
0.49981194734573364 0.737183690071106 0.0
0.74151611328125 0.7359843254089355 0.0
0.9774143695831299 0.7371892929077148 0.0
1.201690912246704 0.7367381453514099 0.0
1.447761058807373 0.7383390665054321 0.0
1.8591958284378052 0.6421071290969849 0.0
0.14080412685871124 0.6421071290969849 0.0
1.588537573814392 0.6783608794212341 0.0
0.2553686201572418 0.6221352219581604 0.0
1.7466964721679688 0.6278358101844788 0.0
0.38199201226234436 0.6273008584976196 0.0
0.5013589859008789 0.6272794008255005 0.0
0.6207823157310486 0.6272526383399963 0.0
0.7401852607727051 0.627252459526062 0.0
0.8595882654190063 0.6272523999214172 0.0
0.9701492786407471 0.6212864518165588 0.0
1.0807102918624878 0.6272523999214172 0.0
1.2001131772994995 0.6272523999214172 0.0
1.3195161819458008 0.6272523999214172 0.0
1.4488563537597656 0.6310953497886658 0.0
1.9247323274612427 0.5706554055213928 0.0
0.07526770234107971 0.5706554055213928 0.0
1.5377081632614136 0.5910930037498474 0.0
1.6566967964172363 0.5934624075889587 0.0
1.8074009418487549 0.5708622932434082 0.0
0.1940300166606903 0.5737577676773071 0.0
1.0286364555358887 0.5665481686592102 0.0
1.14803946018219 0.5665481686592102 0.0
0.9116620421409607 0.5665481686592102 0.0
1.2674424648284912 0.5665481686592102 0.0
0.7922590970993042 0.5665481686592102 0.0
0.6728560328483582 0.5665482878684998 0.0
0.5534531474113464 0.5665481686592102 0.0
1.3892061710357666 0.5727682709693909 0.0
0.43402159214019775 0.5665869116783142 0.0
0.3146642744541168 0.5667200088500977 0.0
1.8656742572784424 0.5607567429542542 0.0
0.1343258023262024 0.5607567429542542 0.0
1.5970147848129272 0.5642029047012329 0.0
1.8783670663833618 0.7786769866943359 0.0
0.12163297086954117 0.7786769866943359 0.0
1.7164177894592285 0.562579333782196 0.0
1.4776118993759155 0.5620538592338562 0.0
1.5857784748077393 0.867691159248352 0.0
0.25373148918151855 0.5588531494140625 0.0
0.9701492786407471 0.5582930445671082 0.0
1.0895521640777588 0.5582930445671082 0.0
0.8507462739944458 0.5582930445671082 0.0
1.20895516872406 0.5582930445671082 0.0
0.7313433289527893 0.5582930445671082 0.0
1.3283581733703613 0.5582930445671082 0.0
0.6119403839111328 0.5582930445671082 0.0
0.49253740906715393 0.5582930445671082 0.0
0.37313446402549744 0.5582956075668335 0.0
0.36864349246025085 0.7376502752304077 0.0
0.602456271648407 0.7355343103408813 0.0
0.8441241383552551 0.7366551756858826 0.0
1.3355978727340698 0.7366551160812378 0.0
1.0895521640777588 0.7378703355789185 0.0
0.07051979005336761 0.6486480832099915 0.0
1.9294801950454712 0.6486480832099915 0.0
1.5086064338684082 0.6743985414505005 0.0
1.6785967350006104 0.6649783849716187 0.0
1.9543375968933105 0.5452249050140381 0.0
0.04566239193081856 0.5452249050140381 0.0
1.6567095518112183 0.5496091842651367 0.0
1.53738272190094 0.5491842031478882 0.0
0.91306072473526 0.8965699672698975 0.0
1.7782752513885498 0.5446287989616394 0.0
1.4163299798965454 0.5447981357574463 0.0
0.4287482798099518 0.8945969939231873 0.0
1.2610714435577393 0.8950135707855225 0.0
0.4313095211982727 0.6832783222198486 0.0
0.31561949849128723 0.6858259439468384 0.0
1.029850721359253 0.6781684160232544 0.0
0.9082015752792358 0.6848641633987427 0.0
1.1492537260055542 0.6781684160232544 0.0
0.7886138558387756 0.678956151008606 0.0
1.2709345817565918 0.684736430644989 0.0
0.6685023903846741 0.6868807673454285 0.0
1.4007169008255005 0.6702371835708618 0.0
0.5483440160751343 0.6792802214622498 0.0
0.19808045029640198 0.6887137293815613 0.0
1.797759771347046 0.6853783130645752 0.0
0.6811949610710144 0.8757594227790833 0.0
1.0189321041107178 0.8474968671798706 0.0
0.7922950983047485 0.8446238040924072 0.0
1.3765455484390259 0.8590760827064514 0.0
1.1571698188781738 0.8478953838348389 0.0
1.8954496383666992 0.5359624624252319 0.0
1.8360060453414917 0.5359931588172913 0.0
0.10455036163330078 0.5359624624252319 0.0
0.16417928040027618 0.5353734493255615 0.0
0.5530290007591248 0.8422092199325562 0.0
0.2832632064819336 0.5367912650108337 0.0
0.22469767928123474 0.5394234657287598 0.0
0.9405550956726074 0.5357381105422974 0.0
0.9997434020042419 0.5357381105422974 0.0
1.0600273609161377 0.5365630984306335 0.0
1.1191463470458984 0.5357381105422974 0.0
0.8802711367607117 0.5365630984306335 0.0
0.8211521506309509 0.5357381105422974 0.0
1.2385493516921997 0.5357381105422974 0.0
1.179430365562439 0.5365630984306335 0.0
0.7608681321144104 0.5365630984306335 0.0
0.7017492055892944 0.5357381105422974 0.0
1.2988333702087402 0.5365630984306335 0.0
1.357560396194458 0.5390686392784119 0.0
0.5823462605476379 0.5357381105422974 0.0
0.6414651870727539 0.5365630984306335 0.0
0.5220622420310974 0.5365630984306335 0.0
0.4629422128200531 0.535739541053772 0.0
0.3435409665107727 0.5357455015182495 0.0
0.4026572108268738 0.5365669131278992 0.0
0.21006634831428528 0.8590372204780579 0.0
1.7943172454833984 0.8627070188522339 0.0
0.06134982034564018 0.7191494703292847 0.0
1.938650131225586 0.7191494703292847 0.0
1.634666085243225 0.7584379315376282 0.0
0.3355695903301239 0.8387951850891113 0.0
1.537941336631775 0.7633647918701172 0.0
1.9670078754425049 0.574067234992981 0.0
0.032992132008075714 0.574067234992981 0.0
1.6862140893936157 0.5314788222312927 0.0
1.6272135972976685 0.5317342281341553 0.0
1.5077245235443115 0.5309156775474548 0.0
1.5668202638626099 0.5316618084907532 0.0
1.7466963529586792 0.5298213958740234 0.0
1.4473658800125122 0.5297333002090454 0.0
1.804386019706726 0.5275400876998901 0.0
1.9283779859542847 0.5282225012779236 0.0
1.8656879663467407 0.5267112255096436 0.0
0.13432854413986206 0.5271331071853638 0.0
0.07162196189165115 0.5282225012779236 0.0
0.25373148918151855 0.527070939540863 0.0
0.19419340789318085 0.5297109484672546 0.0
0.31349387764930725 0.5272363424301147 0.0
0.37313446402549744 0.5270199179649353 0.0
0.4329495429992676 0.5274069309234619 0.0
0.49253740906715393 0.5270196795463562 0.0
0.5523557066917419 0.5274024605751038 0.0
1.3898069858551025 0.5277745127677917 0.0
1.3283581733703613 0.5270196795463562 0.0
0.6119403839111328 0.5270196795463562 0.0
1.2685397863388062 0.5274024605751038 0.0
0.6717586517333984 0.5274024605751038 0.0
0.7313433289527893 0.5270196795463562 0.0
1.20895516872406 0.5270196795463562 0.0
0.7911616563796997 0.5274024605751038 0.0
0.8507462739944458 0.5270196795463562 0.0
1.1491369009017944 0.5274024605751038 0.0
1.0895521640777588 0.5270196795463562 0.0
0.9105646014213562 0.5274024605751038 0.0
0.9701492786407471 0.5270196795463562 0.0
1.0297338962554932 0.5274024605751038 0.0
1.4776118993759155 0.5259945392608643 0.0
1.597015619277954 0.5255197882652283 0.0
1.7164177894592285 0.525999903678894 0.0
1.6834615468978882 0.8477573990821838 0.0
1.5822722911834717 0.6086509227752686 0.0
0.20459823310375214 0.6270732283592224 0.0
1.8037469387054443 0.6209055185317993 0.0
0.09990309923887253 0.8589919805526733 0.0
1.9000968933105469 0.8589919805526733 0.0
1.75603187084198 0.5789161324501038 0.0
0.10896337777376175 0.5982794761657715 0.0
1.8910366296768188 0.5982794761657715 0.0
1.4950518608093262 0.605266273021698 0.0
1.7049394845962524 0.6007562279701233 0.0
1.4387125968933105 0.5775743722915649 0.0
1.489302158355713 0.851039469242096 0.0
0.15732239186763763 0.5961292386054993 0.0
1.8436260223388672 0.5944437384605408 0.0
0.4399496018886566 0.6259797215461731 0.0
1.022565245628357 0.6257523894309998 0.0
[...]
POINT_DATA 348
SCALARS Psi double
LOOKUP_TABLE default
1.0878984745059137
1.0
1.0
1.0766684692566442
1.0877880062308698
1.087545110472691
1.0891468084440818
1.0938728055774976
1.1033510760285985
1.141821749179054
1.0
1.0
1.0
1.0
1.0
1.0
1.0
1.0
1.0
1.0
1.0
1.1342685463948652
1.0942751242409674
1.0844750354831836
1.079881911372408
1.0777145537983464
1.0768590541920282
1.0879812890902012
1.0867118737203614
1.0848223047272965
1.0824207999612732
1.0794798105856345
1.0760237479536148
1.072121873732831
1.0678672938765632
1.0633834607860362
1.0587584764216056
1.0540920620728167
1.0494630468909534
1.0449565223378594
1.0406243933955621
1.0364944248356216
1.0325996192880897
1.028967284469054
1.025610940001572
1.0225183845118457
1.0196944968263197
1.0171381906735348
1.0148448620382082
1.0127905844151848
1.0109687791865192
1.0093691715629323
1.0079826246132648
1.006788756264361
1.0057803759758288
1.0049494028548847
1.0042890027962363
1.003786664641807
1.0034382993190751
1.003241199565994
1.0031934442639978
1.0032914481784267
1.0035346311375262
1.0039285742433683
1.0044762170590074
1.005180781898269
1.0060462357461994
1.0070859529070193
1.0083062724644183
1.0097144700031626
1.0113162605269268
1.0131345528458298
1.0151740580343662
1.0174309700493598
1.0199346785756118
1.022676493090148
1.0256555034855532
1.028872214843617
1.0323240682515775
1.0359903891850188
1.0398395377927856
1.0438338440270762
1.047925536345239
1.0520543032562295
1.056143908295597
1.0601072579917994
1.0638381740187952
1.0672402127748208
1.0702047587100596
1.072629192736777
1.074475647686301
1.0757491274576894
1.076461344435781
1.0467867111097484
1.051885497499528
1.020119954567465
1.0058086488405238
1.001673089073229
1.0036439487144644
1.013915967140928
1.0733682570847227
1.0821127466395306
1.0311074484642162
1.0635343109924498
1.0566896057905453
1.0425530035947277
1.0268241535057525
1.0156243623884142
1.008449778802616
1.0043633587493612
1.0028457867716798
1.003042130340358
1.0054010944040004
1.0102988518924463
1.019045707142145
1.0762815970208393
1.0856765450456363
1.0292513434324893
1.044529511697501
1.0659083918864358
1.0740341916067122
1.0030690600136967
1.004581156625481
1.0038189305409797
1.0086117114269162
1.0070315646224712
1.0132384594371568
1.0232041804416891
1.0157540903958484
1.0374860201990437
1.0554784179709218
1.07198083028601
1.0811616401264963
1.0372069616075081
1.078243879475635
1.0863580194891438
1.0536728172764962
1.0235734735172648
1.0130768691662626
1.0652546100949447
1.0031970524730114
1.003579888193564
1.0051657431279073
1.0063427129972862
1.009847796855545
1.011873277050545
1.017911442659961
1.0300947466121202
1.0464794892479856
1.035694769451556
1.0123546184430494
1.0031387426964236
1.0079927420496275
1.0019375177825474
1.0902638557374253
1.0807843178728147
1.022636796751749
1.0445797931518364
1.0766486529924721
1.0869297742305088
1.0454993564028188
1.0301804044160836
1.0004324779457143
1.062223399494599
1.0182593122279577
1.0105238643737664
1.0014801910947342
1.0321300518410055
1.0494026491767916
1.00228669242287
1.002832583244751
1.003548759332401
1.005618481713379
1.006837519466231
1.010584496684741
1.014016969341587
1.0195846246205789
1.071695917467308
1.063540204139435
1.0033690888747584
1.0005515289266012
1.0019091530081183
1.0044737988317907
1.0011770794818944
1.0738826786534976
1.0689326686853926
1.0837058532098618
1.0778577788647872
1.0080518454116587
1.0609556648015959
1.069822466203313
1.0035449095528757
1.0031568981133807
1.0033514355710713
1.0041283491621866
1.0045480023594842
1.00618440919277
1.007584955933144
1.0055370177879102
1.0085721333130846
1.0117220718823765
1.0104033157148806
1.0139270178227926
1.0208731770420245
1.0158334216377207
1.027074305041562
1.034252173226316
1.0515054291938806
1.0425620823573973
1.0395567065611524
1.0362112339411222
1.0980435920039104
1.0884747659977334
1.0302226293673076
1.0266177484462176
1.0193764487887327
1.0777981806244412
1.0869960836179224
1.0498144934644749
1.041708105056085
1.0271153359102434
1.033926273625814
1.0581499446394123
1.0211277923836952
1.065424181817107
1.0754785720491216
1.0715896555247888
1.0810291667557002
1.0859076136182237
1.0655604214028789
1.0740717861640974
1.0562842958538763
1.0470323712778813
1.0383626599147844
1.0306044752124548
1.023898083915259
1.0163204858116226
1.012123536430583
1.0182792587005478
1.0089275203721777
1.0137006778721829
1.0100775781267806
1.0065003902887604
1.0073102832350647
1.0053049710572735
1.0047733073656624
1.0036843055083045
1.003987408849438
1.0032948803011414
1.0031996899315196
1.0240373575828996
1.0377827111537758
1.0540276655971696
1.0247321279254589
1.034023728479501
1.0720977954053748
1.065417477667315
1.0766798885028082
1.069455570011368
1.0590427058656988
1.0841870038584418
1.075105597125948
1.0242340643880596
1.051239823873973
1.0196470454202298
1.0091319940554677
1.0790605294258169
1.0704032401573655
1.0344440063442932
1.0027017717232873
1.0033116066653602
1.0039833364085748
1.0061442472404087
1.0075903524984569
1.011737989708241
1.0131967721968629
1.020894821976339
1.053071258007348
1.0269044500744027
1.0769456125866204
1.0853521982253382
1.049032720072612
1.0329780828114221
1.0415769128202013
1.0531510677116236
1.002383025725276
1.0026693188057272
1.0039418911336466
1.0050219755394465
1.007914762632809
1.0097441058479248
1.0144741786151452
1.0255108295520203
1.0411378679621512
1.1079720339972978
1.099286006036079
1.0766662395483486
1.087955370491587
1.0607630654084088
1.0029734870243023
1.003251575736884
1.0031706622359364
1.0612209313493575
1.0037527086784614
1.0043770222429036
1.005600346258114
1.0053642798870406
1.0069008653554925
1.0083446693184086
1.0107080771129566
1.0101583380857
1.0127990591731149
1.0154620518406445
1.0192794234283054
1.026546538835539
1.0680748969585918
1.0320716499156881
1.0420100803880286
1.0488854790191842
1.0174362726640072
1.0457873258268329
1.0304818268431855
1.038647165776141
1.0014570165754395
1.0217583110289146
1.0389659103822075
1.0837777927920265
1.0744046642619005
1.0002569121773366
1.0282062276242916
1.0692428658326418
1.078109347538554
1.0039401956853697
1.0875215093190713
1.0771331067684864
1.0872136409914437
1.0783251134840632
1.0690638753648463
1.0624278431759815
1.062006016573451
1.0185975169905457
1.0010538007721421
1.0163453081958265
1.0065916817527123
1.076190835787415
1.0872104888628626
1.052818722283489
1.0469710938931729

SCALARS Omega double
LOOKUP_TABLE default
4.100276591395237
-10.32773079543609
-14.26864956339769
0.13217857057051965
4.492515426468188
-2.6837945533075516
-4.473557660634739
3.542292223091398
1.0314781535195126
20.842645460337376
-8.188675201154055
-0.40947252232507275
-0.8985275653938818
-0.234213959427572
-0.11369097867133006
-0.03061211119018229
-0.11116900932415255
-0.1864350413118968
-0.656989280026576
-0.6110339256923324
-6.115745385050903
17.94367058510942
3.5124636782393472
-1.037908127011849
0.1453482836501568
0.03351225769588262
-0.3220314024798051
2.111361729825305
1.0918367791700716
0.7143021740894837
0.5849518485729639
0.532723942492914
0.5070780229780575
0.4781901953453014
0.4415368869510567
0.39741178056706505
0.3477326855173971
0.29624639566450933
0.24497892024274714
0.19618313349196467
0.15080900292460203
0.10952048225669675
0.07261347350639179
0.040333453579124476
0.012569702993086044
-0.01115535132958442
-0.031081819755355573
-0.047524590627114574
-0.06081139786220991
-0.0715413250942373
-0.08001355261642464
-0.08658310712087289
-0.09151389784999495
-0.09520530149861754
-0.09785149337483785
-0.09967300325199616
-0.10081314043691467
-0.10146383312963993
-0.10170958672120303
-0.1016268687743838
-0.10124796093657974
-0.10059290948863468
-0.09964829274356844
-0.09834303166584923
-0.09661228012447923
-0.09434272394968667
-0.09142625853745319
-0.0876322266843145
-0.08279843107413387
-0.07668844523080537
-0.06909527064200206
-0.0595473172910346
-0.047802903249967686
-0.033664973885462954
-0.016472751712207585
0.0039104991140371135
0.02774308170473001
0.055309120537457894
0.08677693338047505
0.1220369049220487
0.1605761313608433
0.2016896050434838
0.24401350578082687
0.2859350888697447
0.32478694600396457
0.35760137009318066
0.37954715493406777
0.3852480049243939
0.37065562196721863
0.3300023908605341
0.2610341029399311
0.1651091931385533
0.06635078647427323
0.3151066787097485
0.33936277925755554
-0.11646412749211621
-0.13091185667442615
-0.10570544244128849
-0.11366535237418371
-0.12385496956469141
0.717832807596991
0.8448250621504413
0.04691930011486997
0.4698816282079839
0.40812474717936403
0.16694960755827856
0.002897547175422758
-0.07395212630508731
-0.1000794414524476
-0.10519634428525594
-0.10385548595556332
-0.10230780758085131
-0.09843631749301691
-0.08460653283898785
-0.04068562454058675
0.30650981069105737
0.0948899177555187
0.05186250842975437
0.2173010543421934
0.439917410087001
0.5280590909252625
-0.10168073739804342
-0.09715105264443617
-0.10234065547100027
-0.08372762102511014
-0.09659159909592241
-0.07320444395688273
-0.011171932718894318
-0.048931336381648864
0.1162785066333701
0.3207472807165794
0.40938443047306433
0.4908519705420199
0.13352109534942552
2.2490601200616225
2.5274009286828383
0.31560108615768057
0.007244176733275922
-0.31878313544489734
0.4342894838819934
-0.10231092622108681
-0.09981692806405731
-0.10036161191588956
-0.09157790155478376
-0.08711259275202823
-0.0687306213534116
-0.04655457285695168
0.04633405892939196
0.21351020278402877
0.040642050454336456
-0.14344316639388915
-0.11680355787946904
-0.12342029435512587
-0.10619346693417814
0.9676272328609206
0.5747828401966462
-0.031028869523735892
0.2379945714030026
0.14049951445145545
0.4503874092274221
0.22190937382064152
0.06523625353622185
-0.09857906644496507
0.38752322420555435
-0.030069434434410066
-0.41888398810737465
-0.15081365778138428
0.03255470394298613
0.27537492140949205
-0.10461616328969824
-0.10807518480278828
-0.10488149130466932
-0.11268902260609064
-0.10497213967852176
-0.11310599821853497
-0.08190653120131779
-0.0732426340540359
0.8361155033640251
0.6923071888276566
-0.20088340153445577
-0.0979626460499804
-0.14249513301138367
-0.2089131399848412
-0.11464430760700062
0.32160350023341017
0.3990826750053531
0.5432661528298627
0.5181516061358052
-0.3016400703848559
0.37625886709554085
0.46768784739580455
-0.10188407620136342
-0.10167070349686395
-0.10038421079556162
-0.09788440007489439
-0.10072930314616288
-0.09731626898273872
-0.08620622829729431
-0.09350530320949112
-0.09023276549149094
-0.07756313163718263
-0.07426981170368122
-0.056273975081853375
-0.024308275533484157
-0.056498592003425316
0.023020098190722947
0.08697762293821368
0.26890621586200314
0.17062922353079277
-0.6191909294917569
-0.5147470841169274
2.3294452251187736
1.9777754326562487
-0.011509735355372109
-0.23816940700228717
-0.12062838988454044
0.16690677657355854
-1.0217322041323094
0.2655262803328849
0.18017280045770306
0.0392061471765734
0.10148348527304253
0.346625146972145
-0.008566668969855949
0.39209163256963314
0.21860644186081207
0.3652351841192625
0.5338230402321975
0.7124939981818402
0.4234154728675118
0.49727144014894986
0.3222716188815949
0.218803571368445
0.1275221873149811
0.05381235952117083
-0.0016606519172538282
-0.041427650445645364
-0.06554031119323292
-0.04122242055253212
-0.08056138243522785
-0.06760899316182267
-0.08431587013587218
-0.09007820841112345
-0.09403104486061627
-0.09919241075173602
-0.09582606824291018
-0.09921886260678663
-0.1013961046772709
-0.10184407580575108
-0.1010833229589136
0.01396225084988451
0.1397994391224098
0.3076025263571139
-0.2638912731573961
0.09725913339108846
0.6218180596334968
0.5337798651870787
2.903995377801677
2.1556482072658554
0.3856460207454437
0.43159595953562474
0.4734073822376549
0.005161758004361133
0.3062370625432058
-0.02441038489752625
-0.2810106959149965
0.5921227818731901
0.5085895250222268
0.07552629316156909
-0.10322296887731415
-0.10472893921779672
-0.10082993819186695
-0.10385718316140853
-0.09299651549749481
-0.0899879708580675
-0.07147385155957181
-0.04182883895740611
0.3101615018917528
0.034135990374425856
1.2523254612618002
1.4785748227904774
0.2651621003447028
0.09036934035610081
0.18033095470585053
0.41361737900019213
-0.10537196689889626
-0.1043347552859253
-0.11016426596226693
-0.1044455063240333
-0.11200116001573274
-0.09772746947777587
-0.0991526260697405
-0.028490043251690605
0.14423106337711333
5.59834230259195
5.4033310216290955
-0.012855761299662698
2.0975690307101647
0.4888528703123971
-0.1026592897309211
-0.10312383634480576
-0.10135194605798374
0.4019968996810147
-0.09983805538478795
-0.10270297647368197
-0.10100566888395346
-0.09587048404946902
-0.09124247914476535
-0.09487819303128134
-0.08672286982800574
-0.07944071603574432
-0.06713690872751739
-0.06531830849044937
-0.04228617850092928
0.010999425356934213
0.48867830817107877
0.0603949183918252
0.16287202191327205
0.24370900185568192
-0.06902117037217108
0.22262509022680943
0.06938332803352967
0.14914127614685255
-0.10985028243038343
-0.16829937846685517
0.15224910600441072
0.38217091777772977
0.375189865240197
-0.08900149604137315
0.03241088177723742
0.4400053669957797
0.5321896093695795
-0.13409298090490462
0.4668976837177967
0.011219789281192188
-0.5101373601021166
0.3408516063694783
1.0203185730901492
0.9271598518391071
0.37332386665028966
-0.02622250183074668
-0.1725691100219247
-0.05296720420536013
-0.16617295466226906
0.1185608031848411
1.248211826241944
0.5729328676154429
-1.216772112487468

SCALARS Vx_analytic double
LOOKUP_TABLE default
4.100276591395237
-10.32773079543609
-14.26864956339769
0.1321063796461114
4.492515426468188
-2.6837945533075516
-4.473557660634739
3.542292223091398
1.0314781535195126
20.842645460337376
-8.188675201154055
-0.40947252232507275
-0.8985275653938818
-0.234213959427572
-0.11369097867133006
-0.03061211119018229
-0.11116900932415255
-0.1864350413118968
-0.6569892800265758
-0.6110339256923324
-6.115745385050903
17.94367058510942
3.513264695897651
-1.0157705221643358
0.14755553987779968
0.03451969899733505
-0.32007619909010154
2.111361729825305
1.0918367791700716
0.7143021740894837
0.5849518485729639
0.532723942492914
0.5070780229780575
0.4781901953453014
0.4415368869510567
0.39741178056706505
0.3477326855173971
0.29624639566450933
0.24497892024274714
0.19618313349196467
0.15080900292460203
0.10952048225669675
0.07261347350639179
0.040333453579124476
0.012569702993086044
-0.01115535132958442
-0.031081819755355573
-0.047524590627114574
-0.06081139786220991
-0.0715413250942373
-0.08001355261642464
-0.08658310712087289
-0.09151389784999495
-0.09520530149861754
-0.09785149337483785
-0.09967300325199616
-0.10081314043691467
-0.10146383312963993
-0.10170958672120303
-0.1016268687743838
-0.10124782765055282
-0.10059294204194956
-0.0996484550493833
-0.09834350190110276
-0.096613121318798
-0.09434451871860919
-0.0914286187045882
-0.08763597043769175
-0.08280334278891006
-0.07669661379637915
-0.06910496134825493
-0.05956144851391067
-0.04782298754005854
-0.03367246039641915
-0.016485391452378758
0.003888409509779663
0.027721518384715215
0.05529747411443106
0.08676827989982962
0.12202034388196858
0.16057453055739931
0.20170954643104427
0.2440664345033267
0.2860015838006699
0.32489654469078433
0.3577128693745235
0.3797278569292236
0.38560071590682593
0.37102831606709846
0.3304074131023547
0.2613683054363642
0.16535185060582983
0.06630766750211743
0.3072890282179687
0.3371706145209228
-0.11573714656013008
-0.13079943948012834
-0.1057053551239181
-0.11372780229949192
-0.124563530241384
0.7269997387825828
0.8347617254270769
0.046007270506537364
0.46799101154745093
0.41050734696061614
0.16692146289099347
0.003136668823903533
-0.07378379845270626
-0.10001567391903307
-0.1051812723149925
-0.1038529648682237
-0.10231052803076977
-0.0984683216414911
-0.08473012843988845
-0.041016717923838056
0.3086317366367555
0.10164156815100078
0.05153787112986356
0.21754434337179393
0.4422804079350332
0.527041471254353
-0.10168036655234772
-0.09715932322660294
-0.10233728464411762
-0.08377000668667745
-0.09657556248298381
-0.07315791420021975
-0.011102327663138649
-0.0490750793294253
0.11625277765604405
0.3202582298912057
0.41159595865397547
0.4921555331207621
0.13340677181582186
2.256243746621557
2.465884214837695
0.31620104478255806
0.007045941752140294
-0.31995283261098867
0.43353010341345233
-0.10230954769970366
-0.09981884026472278
-0.1003537180472757
-0.09159326976904626
-0.08708221543359726
-0.06878611534530694
-0.04648330343857872
0.04641118694695709
0.21338885459219428
0.04151052174497553
-0.1429973079278362
-0.11677288635863876
-0.12376119510986168
-0.10620445994409254
0.8926160215204854
0.5831067609988898
-0.031782754694614224
0.23793720672139873
0.1418866574597317
0.4592261061064446
0.22203848098082635
0.0650779669972806
-0.09857956794858613
0.3884750777202582
-0.030156942438430975
-0.41751390884499956
-0.1508969166740969
0.03283307489491348
0.27463727441334523
-0.10461649295415237
-0.10806434632249325
-0.10490610193157102
-0.11263371909575455
-0.10508948353650402
-0.11291175052287139
-0.08229300621660639
-0.07287632478518509
0.8282370826628862
0.6979119990900589
-0.20066822435962597
-0.0979711670308955
-0.14243482955312237
-0.20985491953469784
-0.11468425977837847
0.3229199860492073
0.4004661603599143
0.545584767929004
0.5182087427676778
-0.30079309657105247
0.3759623336509095
0.46729198944463657
-0.10188333045339243
-0.10167020731103235
-0.10038502890796633
-0.09788823854675784
-0.10072764797374142
-0.09731253721591357
-0.08622901541256726
-0.09351735548255334
-0.09022641066298809
-0.07755275575139255
-0.07432039420404483
-0.05635099744409951
-0.024297351235120765
-0.05648791947704377
0.02301212412060183
0.08694559797827295
0.2687318303377831
0.17053225418633775
-0.6002055555256438
-0.5404004018209364
2.3324891610305203
1.9952133237033256
-0.014257358255230316
-0.23526584133958267
-0.12196078555213317
0.16889580909636326
-1.006428528816466
0.2657657157797678
0.18013718698294404
0.03905086594865408
0.10135564260066887
0.3473621975745154
-0.008684319444193022
0.39328239635325724
0.21971500681181552
0.36633678585642737
0.5347506766808028
0.7167242441773799
0.42311179378160624
0.49705399018412033
0.3221079645654075
0.21875178329697714
0.12751921381714226
0.05384393201624115
-0.0016322894206657948
-0.04151191155064693
-0.0655885247711534
-0.04119317859995706
-0.08058918605330975
-0.06759113277234888
-0.0843033473152195
-0.09009150162918683
-0.09402489191073196
-0.09918920923254865
-0.0958318457216518
-0.09922064608285168
-0.10139490965510482
-0.10184361020515258
-0.10108341549804827
0.013839356920073303
0.13970756573244525
0.30797848305191594
-0.2698286969773728
0.09687450540465196
0.6181302600909115
0.5377275131525048
2.8036412452533157
1.9883210013783217
0.38716987918866774
0.42802012396640166
0.47752159428389607
0.004780602870161618
0.30695853228080866
-0.02464960142736808
-0.28242466287453205
0.5891893005314491
0.5124021151991568
0.07569952319075639
-0.10322246035634043
-0.10472312727565895
-0.10084273201007656
-0.10382419512380654
-0.09306743180288699
-0.08988417115472899
-0.07166214313221449
-0.04160908275382564
0.30944238264523816
0.03395512403854415
1.265000153519148
1.4602339633011598
0.26559395215651094
0.09019050064835657
0.180386235939615
0.4148559104648724
-0.10536896235447916
-0.1043393000525032
-0.11013665881849415
-0.10448760294828331
-0.11189194719586555
-0.09790551172983006
-0.09883423321628759
-0.02803120503625836
0.1441547257621688
5.320999423523923
5.209113620693733
-0.01209332746360155
2.0940044611014255
0.48593036170382053
-0.10265782145731371
-0.10312143453262555
-0.10135356154035897
0.4010911438352589
-0.09984342184098485
-0.10269515363957937
-0.10099102635381269
-0.095891042547065
-0.09127527610625323
-0.09484443757977458
-0.0866706052109239
-0.07952305266772884
-0.06724861035058644
-0.06522696170436076
-0.0421731160222907
0.011130154359654122
0.48724962629613744
0.060495842167752764
0.16281780513828914
0.24343739591992963
-0.06948058667620696
0.22266343541758576
0.069258337702259