# vtk DataFile Version 1.0
2D Simulation C++
ASCII
DATASET UNSTRUCTURED_GRID
FIELD FieldData 1
NODES 1 2 int
348 601

POINTS 348 double
0.0 0.5 0.0
0.0 1.0 0.0
2.0 1.0 0.0
2.0 0.5 0.0
0.0 0.528801679611206 0.0
0.0 0.564507782459259 0.0
0.0 0.6110168099403381 0.0
0.0 0.6721802353858948 0.0
0.0 0.7528436183929443 0.0
0.0 0.8593378663063049 0.0
0.16666941344738007 1.0 0.0
0.3333356976509094 1.0 0.0
0.5000020265579224 1.0 0.0
0.6666678786277771 1.0 0.0
0.8333337306976318 1.0 0.0
1.0 1.0 0.0
1.1666662693023682 1.0 0.0
1.3333321809768677 1.0 0.0
1.4999979734420776 1.0 0.0
1.6666642427444458 1.0 0.0
1.8333306312561035 1.0 0.0
2.0 0.8593378663063049 0.0
2.0 0.7528436183929443 0.0
2.0 0.6721802353858948 0.0
2.0 0.6110168099403381 0.0
2.0 0.564507782459259 0.0
2.0 0.528801679611206 0.0
0.029850948601961136 0.5 0.0
0.05970168858766556 0.5 0.0
0.08955242484807968 0.5 0.0
0.1194031685590744 0.5 0.0
0.14925390481948853 0.5 0.0
0.17910465598106384 0.5 0.0
0.20895539224147797 0.5 0.0
0.2388061285018921 0.5 0.0
0.2686568796634674 0.5 0.0
0.29850760102272034 0.5 0.0
0.32835835218429565 0.5 0.0
0.35820910334587097 0.5 0.0
0.3880598247051239 0.5 0.0
0.4179105758666992 0.5 0.0
0.44776129722595215 0.5 0.0
0.47761204838752747 0.5 0.0
0.5074627995491028 0.5 0.0
0.5373135209083557 0.5 0.0
0.5671642422676086 0.5 0.0
0.5970150232315063 0.5 0.0
0.6268657445907593 0.5 0.0
0.6567164659500122 0.5 0.0
0.6865672469139099 0.5 0.0
0.7164179682731628 0.5 0.0
0.7462686896324158 0.5 0.0
0.7761194705963135 0.5 0.0
0.8059701919555664 0.5 0.0
0.8358209133148193 0.5 0.0
0.865671694278717 0.5 0.0
0.89552241563797 0.5 0.0
0.9253731369972229 0.5 0.0
0.9552239179611206 0.5 0.0
0.9850746393203735 0.5 0.0
1.0149253606796265 0.5 0.0
1.0447760820388794 0.5 0.0
1.0746268033981323 0.5 0.0
1.1044776439666748 0.5 0.0
1.1343283653259277 0.5 0.0
1.1641790866851807 0.5 0.0
1.1940298080444336 0.5 0.0
1.2238805294036865 0.5 0.0
1.2537312507629395 0.5 0.0
1.2835819721221924 0.5 0.0
1.3134328126907349 0.5 0.0
1.3432835340499878 0.5 0.0
1.3731342554092407 0.5 0.0
1.4029849767684937 0.5 0.0
1.4328356981277466 0.5 0.0
1.4626864194869995 0.5 0.0
1.492537260055542 0.5 0.0
1.522387981414795 0.5 0.0
1.5522387027740479 0.5 0.0
1.5820894241333008 0.5 0.0
1.6119401454925537 0.5 0.0
1.6417908668518066 0.5 0.0
1.6716417074203491 0.5 0.0
1.701492428779602 0.5 0.0
1.731343150138855 0.5 0.0
1.761193871498108 0.5 0.0
1.7910445928573608 0.5 0.0
1.8208953142166138 0.5 0.0
1.8507460355758667 0.5 0.0
1.8805968761444092 0.5 0.0
1.910447597503662 0.5 0.0
1.940298318862915 0.5 0.0
1.970149040222168 0.5 0.0
1.7358819246292114 0.7499510645866394 0.0
0.2656642198562622 0.7486277222633362 0.0
0.49981194734573364 0.737183690071106 0.0
0.74151611328125 0.7359843254089355 0.0
0.9774143695831299 0.7371892929077148 0.0
1.201690912246704 0.7367381453514099 0.0
1.447761058807373 0.7383390665054321 0.0
1.8591958284378052 0.6421071290969849 0.0
0.14080412685871124 0.6421071290969849 0.0
1.588537573814392 0.6783608794212341 0.0
0.2553686201572418 0.6221352219581604 0.0
1.7466964721679688 0.6278358101844788 0.0
0.38199201226234436 0.6273008584976196 0.0
0.5013589859008789 0.6272794008255005 0.0
0.6207823157310486 0.6272526383399963 0.0
0.7401852607727051 0.627252459526062 0.0
0.8595882654190063 0.6272523999214172 0.0
0.9701492786407471 0.6212864518165588 0.0
1.0807102918624878 0.6272523999214172 0.0
1.2001131772994995 0.6272523999214172 0.0
1.3195161819458008 0.6272523999214172 0.0
1.4488563537597656 0.6310953497886658 0.0
1.9247323274612427 0.5706554055213928 0.0
0.07526770234107971 0.5706554055213928 0.0
1.5377081632614136 0.5910930037498474 0.0
1.6566967964172363 0.5934624075889587 0.0
1.8074009418487549 0.5708622932434082 0.0
0.1940300166606903 0.5737577676773071 0.0
1.0286364555358887 0.5665481686592102 0.0
1.14803946018219 0.5665481686592102 0.0
0.9116620421409607 0.5665481686592102 0.0
1.2674424648284912 0.5665481686592102 0.0
0.7922590970993042 0.5665481686592102 0.0
0.6728560328483582 0.5665482878684998 0.0
0.5534531474113464 0.5665481686592102 0.0
1.3892061710357666 0.5727682709693909 0.0
0.43402159214019775 0.5665869116783142 0.0
0.3146642744541168 0.5667200088500977 0.0
1.8656742572784424 0.5607567429542542 0.0
0.1343258023262024 0.5607567429542542 0.0
1.5970147848129272 0.5642029047012329 0.0
1.8783670663833618 0.7786769866943359 0.0
0.12163297086954117 0.7786769866943359 0.0
1.7164177894592285 0.562579333782196 0.0
1.4776118993759155 0.5620538592338562 0.0
1.5857784748077393 0.867691159248352 0.0
0.25373148918151855 0.5588531494140625 0.0
0.9701492786407471 0.5582930445671082 0.0
1.0895521640777588 0.5582930445671082 0.0
0.8507462739944458 0.5582930445671082 0.0
1.20895516872406 0.5582930445671082 0.0
0.7313433289527893 0.5582930445671082 0.0
1.3283581733703613 0.5582930445671082 0.0
0.6119403839111328 0.5582930445671082 0.0
0.49253740906715393 0.5582930445671082 0.0
0.37313446402549744 0.5582956075668335 0.0
0.36864349246025085 0.7376502752304077 0.0
0.602456271648407 0.7355343103408813 0.0
0.8441241383552551 0.7366551756858826 0.0
1.3355978727340698 0.7366551160812378 0.0
1.0895521640777588 0.7378703355789185 0.0
0.07051979005336761 0.6486480832099915 0.0
1.9294801950454712 0.6486480832099915 0.0
1.5086064338684082 0.6743985414505005 0.0
1.6785967350006104 0.6649783849716187 0.0
1.9543375968933105 0.5452249050140381 0.0
0.04566239193081856 0.5452249050140381 0.0
1.6567095518112183 0.5496091842651367 0.0
1.53738272190094 0.5491842031478882 0.0
0.91306072473526 0.8965699672698975 0.0
1.7782752513885498 0.5446287989616394 0.0
1.4163299798965454 0.5447981357574463 0.0
0.4287482798099518 0.8945969939231873 0.0
1.2610714435577393 0.8950135707855225 0.0
0.4313095211982727 0.6832783222198486 0.0
0.31561949849128723 0.6858259439468384 0.0
1.029850721359253 0.6781684160232544 0.0
0.9082015752792358 0.6848641633987427 0.0
1.1492537260055542 0.6781684160232544 0.0
0.7886138558387756 0.678956151008606 0.0
1.2709345817565918 0.684736430644989 0.0
0.6685023903846741 0.6868807673454285 0.0
1.4007169008255005 0.6702371835708618 0.0
0.5483440160751343 0.6792802214622498 0.0
0.19808045029640198 0.6887137293815613 0.0
1.797759771347046 0.6853783130645752 0.0
0.6811949610710144 0.8757594227790833 0.0
1.0189321041107178 0.8474968671798706 0.0
0.7922950983047485 0.8446238040924072 0.0
1.3765455484390259 0.8590760827064514 0.0
1.1571698188781738 0.8478953838348389 0.0
1.8954496383666992 0.5359624624252319 0.0
1.8360060453414917 0.5359931588172913 0.0
0.10455036163330078 0.5359624624252319 0.0
0.16417928040027618 0.5353734493255615 0.0
0.5530290007591248 0.8422092199325562 0.0
0.2832632064819336 0.5367912650108337 0.0
0.22469767928123474 0.5394234657287598 0.0
0.9405550956726074 0.5357381105422974 0.0
0.9997434020042419 0.5357381105422974 0.0
1.0600273609161377 0.5365630984306335 0.0
1.1191463470458984 0.5357381105422974 0.0
0.8802711367607117 0.5365630984306335 0.0
0.8211521506309509 0.5357381105422974 0.0
1.2385493516921997 0.5357381105422974 0.0
1.179430365562439 0.5365630984306335 0.0
0.7608681321144104 0.5365630984306335 0.0
0.7017492055892944 0.5357381105422974 0.0
1.2988333702087402 0.5365630984306335 0.0
1.357560396194458 0.5390686392784119 0.0
0.5823462605476379 0.5357381105422974 0.0
0.6414651870727539 0.5365630984306335 0.0
0.5220622420310974 0.5365630984306335 0.0
0.4629422128200531 0.535739541053772 0.0
0.3435409665107727 0.5357455015182495 0.0
0.4026572108268738 0.5365669131278992 0.0
0.21006634831428528 0.8590372204780579 0.0
1.7943172454833984 0.8627070188522339 0.0
0.06134982034564018 0.7191494703292847 0.0
1.938650131225586 0.7191494703292847 0.0
1.634666085243225 0.7584379315376282 0.0
0.3355695903301239 0.8387951850891113 0.0
1.537941336631775 0.7633647918701172 0.0
1.9670078754425049 0.574067234992981 0.0
0.032992132008075714 0.574067234992981 0.0
1.6862140893936157 0.5314788222312927 0.0
1.6272135972976685 0.5317342281341553 0.0
1.5077245235443115 0.5309156775474548 0.0
1.5668202638626099 0.5316618084907532 0.0
1.7466963529586792 0.5298213958740234 0.0
1.4473658800125122 0.5297333002090454 0.0
1.804386019706726 0.5275400876998901 0.0
1.9283779859542847 0.5282225012779236 0.0
1.8656879663467407 0.5267112255096436 0.0
0.13432854413986206 0.5271331071853638 0.0
0.07162196189165115 0.5282225012779236 0.0
0.25373148918151855 0.527070939540863 0.0
0.19419340789318085 0.5297109484672546 0.0
0.31349387764930725 0.5272363424301147 0.0
0.37313446402549744 0.5270199179649353 0.0
0.4329495429992676 0.5274069309234619 0.0
0.49253740906715393 0.5270196795463562 0.0
0.5523557066917419 0.5274024605751038 0.0
1.3898069858551025 0.5277745127677917 0.0
1.3283581733703613 0.5270196795463562 0.0
0.6119403839111328 0.5270196795463562 0.0
1.2685397863388062 0.5274024605751038 0.0
0.6717586517333984 0.5274024605751038 0.0
0.7313433289527893 0.5270196795463562 0.0
1.20895516872406 0.5270196795463562 0.0
0.7911616563796997 0.5274024605751038 0.0
0.8507462739944458 0.5270196795463562 0.0
1.1491369009017944 0.5274024605751038 0.0
1.0895521640777588 0.5270196795463562 0.0
0.9105646014213562 0.5274024605751038 0.0
0.9701492786407471 0.5270196795463562 0.0
1.0297338962554932 0.5274024605751038 0.0
1.4776118993759155 0.5259945392608643 0.0
1.597015619277954 0.5255197882652283 0.0
1.7164177894592285 0.525999903678894 0.0
1.6834615468978882 0.8477573990821838 0.0
1.5822722911834717 0.6086509227752686 0.0
0.20459823310375214 0.6270732283592224 0.0
1.8037469387054443 0.6209055185317993 0.0
0.09990309923887253 0.8589919805526733 0.0
1.9000968933105469 0.8589919805526733 0.0
1.75603187084198 0.5789161324501038 0.0
0.10896337777376175 0.5982794761657715 0.0
1.8910366296768188 0.5982794761657715 0.0
1.4950518608093262 0.605266273021698 0.0
1.7049394845962524 0.6007562279701233 0.0
1.4387125968933105 0.5775743722915649 0.0
1.489302158355713 0.851039469242096 0.0
0.15732239186763763 0.5961292386054993 0.0
1.8436260223388672 0.5944437384605408 0.0
0.4399496018886566 0.6259797215461731 0.0
1.022565245628357 0.6257523894309998 0.0
[...]
POINT_DATA 348
SCALARS Psi double
LOOKUP_TABLE default
1.089223760829899
1.0
1.0
1.0794549302659415
1.0891047564233292
1.0888296636154144
1.0903571202680782
1.0949262865066665
1.1041219184516395
1.1421868970376454
1.0
1.0
1.0
1.0
1.0
1.0
1.0
1.0
1.0
1.0
1.0
1.1349184246063566
1.0957513214709818
1.0865778561921524
1.0823622392340382
1.080398640354207
1.0796270444336846
1.0893163796853866
1.0880961567974974
1.0862918881969084
1.0840077599832993
1.0812151261305578
1.0779343037897189
1.0742317379709259
1.070195070271353
1.0659464983739226
1.0615696684008322
1.0571596435046082
1.0527910010390389
1.0485479125749546
1.044477884563928
1.0406047976935644
1.0369585864758035
1.033567031092135
1.0304406521639187
1.0275641334758354
1.0249408961096957
1.0225719121971597
1.020451154502571
1.0185523832737369
1.0168690941494956
1.0153943112352433
1.0141186031680984
1.0130194950902032
1.012090659607701
1.01132773248835
1.0107240520528151
1.0102648710743949
1.0099470219756894
1.0097713150630212
1.009736503524343
1.0098363571690443
1.0100694139247324
1.0104443717626728
1.0109643656342144
1.011629368976697
1.0124425693373096
1.0134201129816125
1.0145685304125869
1.0158917285910343
1.0173948405904738
1.0191042894006164
1.0210249299459497
1.0231445184355108
1.0255046469190747
1.0280920922126864
1.0309053625388918
1.0339480027129093
1.0372190550885978
1.0406997838849597
1.0443591391356792
1.0481619519574477
1.0520629836454092
1.05600485818558
1.0599132018899047
1.0637026474666376
1.0672693332786674
1.0705227039800498
1.0733519668409306
1.0756592631675814
1.0774094898653994
1.0786064092702399
1.079267653581843
1.0486683392198175
1.0531850731277994
1.0226293896975671
1.009165149506467
1.0052902121775247
1.0071702945002063
1.0169057498729361
1.0759189429965452
1.0835093137725147
1.034480103918095
1.0656520694947589
1.0598111091149478
1.0455686774708783
1.0307062941814689
1.0202331884328961
1.0135739122015546
1.0097985768397677
1.0084875019962418
1.0086113092183895
1.0108424439569033
1.0154582064149242
1.0236676995773624
1.0790462124700264
1.0870422200044578
1.0338430707714727
1.0484164942191745
1.069098450064349
1.0759414450014166
1.0093381935957864
1.010778892829219
1.0100067669115433
1.0145725018286587
1.012961721247962
1.01869296500329
1.0279451009608798
1.0212440075079063
1.041310320388508
1.0583026828606668
1.0749623520071168
1.0827656783115454
1.041641589656974
1.079539777749804
1.087082369705759
1.0573850047054039
1.0287106611647767
1.01388440802472
1.067613593907942
1.0094938410330865
1.0098825490574754
1.011295765080801
1.012490308095909
1.0156097700619953
1.0176917430842725
1.0230719577586787
1.0344223624057847
1.0498204863829286
1.0375661165300827
1.0153040583009503
1.0066578301744902
1.0112886503324987
1.00552379224836
1.0914273713276497
1.0831177714068816
1.026422366992497
1.0476896418950112
1.0794268381254322
1.088263952066202
1.0496313376754043
1.0350488407157865
1.001228770960861
1.0656535808141494
1.0237957794416954
1.0110311951289863
1.0022323561763793
1.0349602987355135
1.0514780699922932
1.0070470235006594
1.0074201696978677
1.0082444947509883
1.0101028091583777
1.0112323015269935
1.0145834137102112
1.0182858215206054
1.0231400466622782
1.0731224631771572
1.0659310109830262
1.0043481316228795
1.0020288112066817
1.0033528092839517
1.0055553322778916
1.0026175780655977
1.0768260800621796
1.0721049223763874
1.0852122951000451
1.07965653692034
1.0092003631199808
1.0636056787574086
1.072012868392213
1.0099659003805033
1.0096190836820218
1.0098136707356187
1.0105571117772574
1.0108789001534475
1.0123859230463228
1.0138126093282056
1.0118827464912241
1.014580855897412
1.0174899791467167
1.0164576151328142
1.0197574496571729
1.0259642301830012
1.0212878168228323
1.0317317312244316
1.0384414576831054
1.0546679801650563
1.0462372902860129
1.0399587889420356
1.0368119414179382
1.0989555278975771
1.0902507770727556
1.0323278578979684
1.0273883985639036
1.021709936630915
1.0804710574347138
1.0882770110333766
1.0538227070502688
1.0460883367236973
1.0322322247798825
1.0386865304751116
1.061799887405181
1.0265816035836075
1.0687629983787725
1.0783435796581797
1.0746534043517117
1.082675253763759
1.0873130210085087
1.067984492973777
1.076063160415994
1.0592010714024198
1.050464626564569
1.0423154835488182
1.0350496573381922
1.028800235137557
1.0220531359217
1.0181002433496762
1.0235791264578924
1.015100641278895
1.0193435301844742
1.015995219585127
1.012816327866185
1.0134481989789756
1.0116008589020173
1.011192949018499
1.0101590536047322
1.0103957736476248
1.0097639435547336
1.0096941817912153
1.0293338209994785
1.042366512466905
1.0578596327090704
1.025633598519985
1.0382159547074388
1.0738750597396558
1.0683312275568115
1.0770174701909805
1.0700342057866914
1.0624535226954013
1.0856011716785565
1.077837427297353
1.0289312805135198
1.0547929540780905
1.0248742680239542
1.0102810609009962
1.080692573099687
1.0733161119636776
1.0379073467191242
1.0083122273138856
1.008861352921575
1.0095340025265938
1.0114715314283935
1.0129345998270167
1.016650133508209
1.0182517216486724
1.02517751509471
1.0555808338057433
1.0318181143631946
1.0789661868974358
1.0864503839555655
1.0529118765699867
1.0375773300121973
1.045784214160701
1.0557901116153323
1.0072038892710156
1.0074027836954038
1.0085567936575734
1.0096667193632134
1.0122773168355907
1.014129634620406
1.018357175271067
1.028772757616342
1.0436436525073163
1.108582996021051
1.1004143615834823
1.0794532535134087
1.0892799693147273
1.0626056785785383
1.0090573348874425
1.0092751180637776
1.009229696346383
1.0636644038605716
1.0098034521765835
1.0103080223362648
1.011453253911252
1.011305835915433
1.012771980618457
1.0139646855845028
1.0161674087005117
1.0158178814968237
1.018317297770641
1.020551834963766
1.024116811060151
1.0308774127251614
1.0702028141935618
1.0360706315690773
1.0454131456930373
1.0519410025155957
1.021375970345423
1.049996768578188
1.0354410975330754
1.042408339931453
1.0039524387713696
1.0233049020279872
1.0430748627367743
1.0852470444428812
1.077263606656157
1.000781961140322
1.0323261388991705
1.07231665718621
1.0798453336177103
1.0062979538722776
1.0888263399559364
1.0798741889656978
1.0884813538656917
1.0809200051060077
1.070095454453861
1.0641096052060561
1.0655030277073763
1.0242161759695159
1.001485511254202
1.0213312196138848
1.0088981387347014
1.0790142074637625
1.0885664189930002
1.0529492898699617
1.0471759903689566

SCALARS Omega double
LOOKUP_TABLE default
4.064247319495246
-10.368164695245381
-14.365016033815708
0.1197044245427818
4.484458592600307
-2.7266284357649977
-4.50657055879478
3.5206136087253186
1.0338164088577988
20.844332572902903
-8.233542423516115
-0.46833252602155806
-0.9891314169278321
-0.3557057339985892
-0.24862002054992838
-0.1707472780552482
-0.24091340790692795
-0.31541565780477515
-0.7672672381944617
-0.6936813930556941
-6.182762491103395
17.90011400676222
3.5187062579840642
-1.0348162983067895
0.1649647180419291
0.029563304591100736
-0.2836987047325921
2.0885113699644795
1.0737872777472277
0.7015401789534926
0.5786243673163076
0.5336702245435467
0.5159153927867574
0.49542373847541465
0.46748784035829094
0.4323715617254136
0.3918167090218195
0.34942750327951033
0.3070674563007794
0.26696920480613784
0.22992092347694001
0.19646479704963316
0.16679902730057417
0.14122341099387006
0.11954527948110284
0.10120961029955662
0.08596414622269206
0.07362606859564103
0.0638612647214642
0.05602667774550357
0.04987540894836942
0.04523039328562116
0.04185991483105265
0.03931628530034167
0.03747538176530566
0.03629455337281644
0.0356619110196275
0.035310749083051055
0.03520625712459772
0.03541924577093158
0.03594547009761154
0.036653702282131606
0.03751179932226481
0.03870396043372012
0.04028330992465524
0.04221067535954034
0.04453440083221826
0.04756970249723884
0.05145137588861663
0.056246538686718195
0.06209963583700049
0.06958857932815088
0.07892055203034942
0.0899159496083617
0.10368856444073436
0.12015965584338004
0.13953505352783555
0.1621932619472785
0.1883405551297736
0.21792762631737247
0.2504505694114485
0.2852933175326887
0.3211772057916507
0.3566010098688416
0.38895989250702306
0.4153462872962576
0.4309875028495505
0.430694141081632
0.41029869033756344
0.36411243852418834
0.28990412362476975
0.18879470234216755
0.0821845042718195
0.30831393235592625
0.3301524230585022
-0.09918022550376285
-0.10692098920654529
-0.08538877801783588
-0.09312380044519812
-0.10782851520253606
0.7385958843380737
0.8382508534057301
0.08989522886142169
0.4894753112358834
0.44850509855872817
0.21598221304640908
0.0758504135570693
0.014794212241647587
-0.003722769908862088
-0.006397629396727505
-0.0017178581224927933
-0.003403368229014616
-0.00031282080258311846
0.010026466790087877
0.04244874711441175
0.32991666687941607
0.07756890899558465
0.14037782210973884
0.2842754809066103
0.4826763096805916
0.538270637054427
0.024621209504062123
0.02873669168185801
0.02353695885058405
0.039395229166919114
0.027150635979454867
0.043613414424716994
0.09056041831687549
0.06454890439164263
0.19312850225580944
0.36524767828387644
0.44308359424350197
0.4869072408994832
0.21931802803766323
2.228765928016864
2.5093050152669703
0.3774953343411798
0.11341797859121786
-0.3813289605387927
0.4619255420124055
0.02582080433686932
0.028427658652789546
0.026746754856056768
0.03529808402069541
0.03571810300097649
0.05316275332159036
0.06538391715563802
0.13790962876214954
0.27549111143813404
0.04578820887288961
-0.12056522086263514
-0.09466902855485522
-0.10388988075843304
-0.08702464475362331
0.9507256941559105
0.5878150705688608
0.022804060631899225
0.27576363506448615
0.1610111924737061
0.42863181005414014
0.2984045238691703
0.1648084439137469
-0.1958316427144922
0.439155789473217
0.08744514503358995
-0.47574805819545635
-0.2441228186078334
0.07033640087843321
0.2920767378914843
-0.03840612455226637
-0.04601350116843426
-0.038991821390694896
-0.046703012509192406
-0.04482040419457719
-0.05469552291614869
-0.01702960149873823
-0.01877133636957018
0.8332566980587821
0.7072460884941006
-0.2730412556603002
-0.16652285398180106
-0.2038496281490881
-0.2801975881395164
-0.18221874533117355
0.35211946048141124
0.440286946770839
0.5331853213702104
0.5224702638949767
-0.3483929307036289
0.41453379221068243
0.48849316068518933
0.032041499767311944
0.032465630879006176
0.03370888161408999
0.0361381498748972
0.032467359500422496
0.03481507546227749
0.04566280345785747
0.03968363103569467
0.039508955419889975
0.04860798081993533
0.054854241353236396
0.06838978598848543
0.0881917335473782
0.06383290867724972
0.12474318895578686
0.1757798895304533
0.3252740483468904
0.2438285727769408
-0.6558260830777434
-0.5664751531735084
2.316813043883054
1.9779118958382653
-0.016319982068394114
-0.2730968455023609
-0.124126872019416
0.1820996339698703
-1.0493236012518985
0.3380915222923048
0.2652437430967068
0.14673875280404045
0.19854572847227922
0.406422069681999
0.10805048177418704
0.4399941739076803
0.24399137613730143
0.40139940032775845
0.5307825372040118
0.6960261281336305
0.4532028795893411
0.5098128611698555
0.3701229006370534
0.28423990792506576
0.20944223927525962
0.15002738709971286
0.10659838431297143
0.08187130095502473
0.06271191205305048
0.07627760827112588
0.05114262660336612
0.05685018274436223
0.044722719901437315
0.04351471679735999
0.038077605710789886
0.034502803126440565
0.03893191099661367
0.03584916501436743
0.033280019600798
0.03310877684429165
0.03414596648560169
0.12653503707329242
0.23148618077179098
0.3739896778820554
-0.3130216132691987
0.17261088923695928
0.6291576213765168
0.5670652937604771
2.877595783354724
2.1067945931154366
0.43671791123613324
0.42078478271475017
0.4984854030406694
0.09492114014866011
0.3619236235698018
0.08241567409218864
-0.3391362839115774
0.5918596785037379
0.5411574103754726
0.1377182159355406
-0.0030648463908880025
-0.004517461368635296
-0.0009775714848952862
-0.00474956720990728
0.004937334979067076
0.004357566954921815
0.022649625615679084
0.04085761718358128
0.34313931016244015
0.1337457540149232
1.2565506207596853
1.4668036135465656
0.3327302592574409
0.18086035355259739
0.25874960010563086
0.43580336573557216
-0.03609767232619067
-0.038686669685592215
-0.04374070428472036
-0.03780950719011919
-0.045365477088360404
-0.03367644754563565
-0.03888542288331012
0.02059692863070373
0.17414528832095527
5.587731022962976
5.382147759636232
0.008364839836651648
2.077301609143366
0.49906727622063446
0.01660605580539377
0.014867024144240154
0.0168190909529803
0.4330053240769214
0.01895142117296841
0.014928848167069022
0.016667568751513272
0.021477404654258247
0.025888608097349962
0.019870316110426507
0.026296607591856147
0.034225412206981526
0.044323052481449375
0.04103302110502821
0.059212706532063196
0.10029682159686137
0.5080079356210699
0.14102531977894478
0.2259132515786376
0.2957607196983253
-0.013463573121256346
0.30212551169384216
0.17258029588800622
0.2097134203013396
-0.13377053029731575
-0.18272629755634417
0.22615879994735055
0.371412643700801
0.403457523038113
-0.19848665893823694
0.10232970885017119
0.47796033507597163
0.5347918822645413
-0.15837145220165197
0.44148743995349193
0.02810377421402766
-0.5315538130871118
0.3594575827565238
1.0059930678138502
0.9171434896674167
0.4273611104981555
0.09472124647333699
-0.2770244841834035
0.04172637391708467
-0.17911333651212877
0.1404016406615677
1.2284499850589745
0.5428525468549642
-1.2870751683359212

SCALARS Vx_analytic double
LOOKUP_TABLE default
4.064247319495246
-10.368164695245381
-14.365016033815708
0.11966683935119789
4.484458592600307
-2.7266284357649977
-4.50657055879478
3.5206136087253186
1.0338164088577988
20.844332572902903
-8.233542423516115
-0.46833252602155806
-0.9891314169278321
-0.3557057339985892
-0.24862002054992838
-0.1707472780552482
-0.24091340790692795
-0.31541565780477515
-0.7672672381944614
-0.6936813930556941
-6.182762491103395
17.90011400676222
3.5184141691599375
-1.014868584586584
0.1669496893802389
0.030705682153378672
-0.2820376824307413
2.0885113699644795
1.0737872777472277
0.7015401789534926
0.5786243673163076
0.5336702245435467
0.5159153927867574
0.49542373847541465
0.46748784035829094
0.4323715617254136
0.3918167090218195
0.34942750327951033
0.3070674563007794
0.26696920480613784
0.22992092347694001
0.19646479704963316
0.16679902730057417
0.14122341099387006
0.11954527948110284
0.10120961029955662
0.08596414622269206
0.07362606859564103
0.0638612647214642
0.05602667774550357
0.04987540894836942
0.04523039328562116
0.04185991483105265
0.03931628530034167
0.03747538176530566
0.03629455337281644
0.0356619110196275
0.035310749083051055
0.03520625712459772
0.03541924577093158
0.03594472686582979
0.03664958369614439
0.03750340699627725
0.03869232669795743
0.04026714749651312
0.042189807069783924
0.044508305738275196
0.04753935104988852
0.0514151764559947
0.05620297399591981
0.062049026682043054
0.06952759843505674
0.07884806663743416
0.08986718259025558
0.10363075026651754
0.12008550380639493
0.13945781801406798
0.1621249710929861
0.18827404940983816
0.21784983063339622
0.2503892074264539
0.28525579100926557
0.32117576107640133
0.3566125408509179
0.3890197007547893
0.41541744791029356
0.4311331724373359
0.43100170931485277
0.4106295229827665
0.36448261064070026
0.29020773317728493
0.18902301828907075
0.08217839492177065
0.30116364666329776
0.3283760902923741
-0.09795803846561045
-0.1065503320950299
-0.08537561773129271
-0.0933729565042946
-0.10882155716281287
0.7476296964901246
0.8286825532105533
0.08857660308797917
0.4878904483480536
0.45068097034183485
0.21630076174751986
0.07643839320931094
0.015243119937969805
-0.003465891650261378
-0.0062765273590550405
-0.0016869701166529502
-0.0034664697230113745
-0.0005136118323017971
0.009620385328045968
0.041736218356365345
0.3318714684365638
0.08392157552806975
0.1396963318121513
0.2841362211697804
0.4847346712620906
0.5373528632762776
0.02460809354831805
0.028644978332196626
0.023578600030085325
0.03918837815862046
0.02724461064648396
0.04377927228468427
0.09078731042495779
0.06414060745865827
0.1932827236129667
0.3649232735717546
0.44508228523370935
0.488155702894448
0.21890314491400845
2.240337177850424
2.4473146886175297
0.3778273757765287
0.11294837272777578
-0.3824746439881614
0.46129424279468845
0.025836334156273694
0.028385952871349367
0.02681089512665014
0.035182018153511296
0.03584450326454212
0.052940145794522296
0.06558974931253553
0.13814982670191894
0.27553495062491634
0.04721796462624153
-0.11972125278132267
-0.09447870650751364
-0.10456557430514388
-0.08710976230339258
0.8778793695595776
0.5957083503796975
0.021615615163378777
0.2753486168541854
0.16228770392703487
0.43686880930771915
0.2982851722963211
0.16440908724853612
-0.19578681672940823
0.4399268597248777
0.08718043758324916
-0.47427104006387866
-0.24427725364636327
0.07105420456914661
0.2917269299924321
-0.03842465944938629
-0.04591784854716295
-0.039152355893166846
-0.046469722325748336
-0.045220786041744634
-0.054210176080776634
-0.017794388091428578
-0.018033368122405694
0.8255957726243287
0.712887248222021
-0.27263738144718547
-0.16654525479196372
-0.20365431696634248
-0.28126805622090484
-0.1823560279989483
0.3533219922709744
0.4415193062388398
0.5353693345962766
0.5225367957193774
-0.34726536088886956
0.41429556568024817
0.4881511719413697
0.03205151014899824
0.032466697461424596
0.03368947323330287
0.036087881488243406
0.032484424203101464
0.03484103805913311
0.04553834126662412
0.039597533523978004
0.03954425938954392
0.048653549785862484
0.054672264517131766
0.06814945776302533
0.08825010695842483
0.06388569639030263
0.12478968384392447
0.17580549833757275
0.32516075539589084
0.24379372361558588
-0.6364532181665538
-0.5901594051756793
2.318688092152675
1.9979055098264835
-0.01919440998581643
-0.26978233191846795
-0.12575738866166658
0.18397194060469327
-1.0345668262781185
0.33814470048393763
0.26501018381824226
0.14640228197411997
0.19822744312539328
0.4069772632622148
0.10776062013360921
0.44103295552223254
0.24501182865882934
0.4023924776363059
0.531662780585834
0.6999689155699789
0.45295024129236056
0.5096231810333407
0.3700093267753011
0.28424092333094
0.20948840934958046
0.15010743345322577
0.10666970134795374
0.08164743664624467
0.06255928330602374
0.07634703401423168
0.05102541398398808
0.05690166465081043
0.044764686609329835
0.043436870497780604
0.03810629569476555
0.034523311225225665
0.03887970048100654
0.03582302731220398
0.033291755578710884
0.03311387495464209
0.03414049304433502
0.12626524540716116
0.23122926903233093
0.37419975161129726
-0.3193687061319368
0.1718218054721844
0.6257376762824557
0.57064329238916
2.7764962926936225
1.9483985499671481
0.43795449456675817
0.4174150780347504
0.5022497710993227
0.09415530599323169
0.36229649689370175
0.08187985914818363
-0.34070017703273664
0.5891031369297554
0.5447361314232885
0.138220499342169
-0.0030784522393191116
-0.004451192062836956
-0.0011087103422678718
-0.0045751938003488184
0.004635114271101843
0.004677722283325225
0.022125630508088117
0.041368208443796545
0.3427444068254327
0.1332850303897099
1.2697599667734554
1.4487755203790746
0.33288587002421693
0.18037684759721076
0.2585253985065554
0.4367878411900084
-0.03606166521174854
-0.03877486703548883
-0.04357037067236625
-0.03805945917547108
-0.04500522100554483
-0.03419380324847696
-0.03820595115938787
0.02150426033559965
0.17450226083003265
5.313027100369435
5.191063222188261
0.009050314209637408
2.073497651434421
0.49655979545889506
0.016618553320106998
0.014897371495102391
0.016776900464767267
0.4322916778827545
0.01887739986188405
0.015003810701616644
0.016763761513800518
0.021328509918769268
0.025700569031013826
0.02002637524258442
0.026483328433095532
0.033919091490049236
0.043962459032315396
0.04130227131079789
0.05951027323242727
0.10065088136694421
0.5067545542072088
0.14134670778794475
0.2260973598652948
0.295708365321802
-0.014396647223303135
0.3020278869009649
0.17232568030708412
0.20930706368504476
-0.1336947677180757
-0.18126708619546095
0.22570652547818537
0.3738493029530667
0.40558015052361246
-0.19851522429517887