# vtk DataFile Version 1.0
2D Simulation C++
ASCII
DATASET UNSTRUCTURED_GRID
FIELD FieldData 1
NODES 1 2 int
348 601

POINTS 348 double
0.0 0.5 0.0
0.0 1.0 0.0
2.0 1.0 0.0
2.0 0.5 0.0
0.0 0.528801679611206 0.0
0.0 0.564507782459259 0.0
0.0 0.6110168099403381 0.0
0.0 0.6721802353858948 0.0
0.0 0.7528436183929443 0.0
0.0 0.8593378663063049 0.0
0.16666941344738007 1.0 0.0
0.3333356976509094 1.0 0.0
0.5000020265579224 1.0 0.0
0.6666678786277771 1.0 0.0
0.8333337306976318 1.0 0.0
1.0 1.0 0.0
1.1666662693023682 1.0 0.0
1.3333321809768677 1.0 0.0
1.4999979734420776 1.0 0.0
1.6666642427444458 1.0 0.0
1.8333306312561035 1.0 0.0
2.0 0.8593378663063049 0.0
2.0 0.7528436183929443 0.0
2.0 0.6721802353858948 0.0
2.0 0.6110168099403381 0.0
2.0 0.564507782459259 0.0
2.0 0.528801679611206 0.0
0.029850948601961136 0.5 0.0
0.05970168858766556 0.5 0.0
0.08955242484807968 0.5 0.0
0.1194031685590744 0.5 0.0
0.14925390481948853 0.5 0.0
0.17910465598106384 0.5 0.0
0.20895539224147797 0.5 0.0
0.2388061285018921 0.5 0.0
0.2686568796634674 0.5 0.0
0.29850760102272034 0.5 0.0
0.32835835218429565 0.5 0.0
0.35820910334587097 0.5 0.0
0.3880598247051239 0.5 0.0
0.4179105758666992 0.5 0.0
0.44776129722595215 0.5 0.0
0.47761204838752747 0.5 0.0
0.5074627995491028 0.5 0.0
0.5373135209083557 0.5 0.0
0.5671642422676086 0.5 0.0
0.5970150232315063 0.5 0.0
0.6268657445907593 0.5 0.0
0.6567164659500122 0.5 0.0
0.6865672469139099 0.5 0.0
0.7164179682731628 0.5 0.0
0.7462686896324158 0.5 0.0
0.7761194705963135 0.5 0.0
0.8059701919555664 0.5 0.0
0.8358209133148193 0.5 0.0
0.865671694278717 0.5 0.0
0.89552241563797 0.5 0.0
0.9253731369972229 0.5 0.0
0.9552239179611206 0.5 0.0
0.9850746393203735 0.5 0.0
1.0149253606796265 0.5 0.0
1.0447760820388794 0.5 0.0
1.0746268033981323 0.5 0.0
1.1044776439666748 0.5 0.0
1.1343283653259277 0.5 0.0
1.1641790866851807 0.5 0.0
1.1940298080444336 0.5 0.0
1.2238805294036865 0.5 0.0
1.2537312507629395 0.5 0.0
1.2835819721221924 0.5 0.0
1.3134328126907349 0.5 0.0
1.3432835340499878 0.5 0.0
1.3731342554092407 0.5 0.0
1.4029849767684937 0.5 0.0
1.4328356981277466 0.5 0.0
1.4626864194869995 0.5 0.0
1.492537260055542 0.5 0.0
1.522387981414795 0.5 0.0
1.5522387027740479 0.5 0.0
1.5820894241333008 0.5 0.0
1.6119401454925537 0.5 0.0
1.6417908668518066 0.5 0.0
1.6716417074203491 0.5 0.0
1.701492428779602 0.5 0.0
1.731343150138855 0.5 0.0
1.761193871498108 0.5 0.0
1.7910445928573608 0.5 0.0
1.8208953142166138 0.5 0.0
1.8507460355758667 0.5 0.0
1.8805968761444092 0.5 0.0
1.910447597503662 0.5 0.0
1.940298318862915 0.5 0.0
1.970149040222168 0.5 0.0
1.7358819246292114 0.7499510645866394 0.0
0.2656642198562622 0.7486277222633362 0.0
0.49981194734573364 0.737183690071106 0.0
0.74151611328125 0.7359843254089355 0.0
0.9774143695831299 0.7371892929077148 0.0
1.201690912246704 0.7367381453514099 0.0
1.447761058807373 0.7383390665054321 0.0
1.8591958284378052 0.6421071290969849 0.0
0.14080412685871124 0.6421071290969849 0.0
1.588537573814392 0.6783608794212341 0.0
0.2553686201572418 0.6221352219581604 0.0
1.7466964721679688 0.6278358101844788 0.0
0.38199201226234436 0.6273008584976196 0.0
0.5013589859008789 0.6272794008255005 0.0
0.6207823157310486 0.6272526383399963 0.0
0.7401852607727051 0.627252459526062 0.0
0.8595882654190063 0.6272523999214172 0.0
0.9701492786407471 0.6212864518165588 0.0
1.0807102918624878 0.6272523999214172 0.0
1.2001131772994995 0.6272523999214172 0.0
1.3195161819458008 0.6272523999214172 0.0
1.4488563537597656 0.6310953497886658 0.0
1.9247323274612427 0.5706554055213928 0.0
0.07526770234107971 0.5706554055213928 0.0
1.5377081632614136 0.5910930037498474 0.0
1.6566967964172363 0.5934624075889587 0.0
1.8074009418487549 0.5708622932434082 0.0
0.1940300166606903 0.5737577676773071 0.0
1.0286364555358887 0.5665481686592102 0.0
1.14803946018219 0.5665481686592102 0.0
0.9116620421409607 0.5665481686592102 0.0
1.2674424648284912 0.5665481686592102 0.0
0.7922590970993042 0.5665481686592102 0.0
0.6728560328483582 0.5665482878684998 0.0
0.5534531474113464 0.5665481686592102 0.0
1.3892061710357666 0.5727682709693909 0.0
0.43402159214019775 0.5665869116783142 0.0
0.3146642744541168 0.5667200088500977 0.0
1.8656742572784424 0.5607567429542542 0.0
0.1343258023262024 0.5607567429542542 0.0
1.5970147848129272 0.5642029047012329 0.0
1.8783670663833618 0.7786769866943359 0.0
0.12163297086954117 0.7786769866943359 0.0
1.7164177894592285 0.562579333782196 0.0
1.4776118993759155 0.5620538592338562 0.0
1.5857784748077393 0.867691159248352 0.0
0.25373148918151855 0.5588531494140625 0.0
0.9701492786407471 0.5582930445671082 0.0
1.0895521640777588 0.5582930445671082 0.0
0.8507462739944458 0.5582930445671082 0.0
1.20895516872406 0.5582930445671082 0.0
0.7313433289527893 0.5582930445671082 0.0
1.3283581733703613 0.5582930445671082 0.0
0.6119403839111328 0.5582930445671082 0.0
0.49253740906715393 0.5582930445671082 0.0
0.37313446402549744 0.5582956075668335 0.0
0.36864349246025085 0.7376502752304077 0.0
0.602456271648407 0.7355343103408813 0.0
0.8441241383552551 0.7366551756858826 0.0
1.3355978727340698 0.7366551160812378 0.0
1.0895521640777588 0.7378703355789185 0.0
0.07051979005336761 0.6486480832099915 0.0
1.9294801950454712 0.6486480832099915 0.0
1.5086064338684082 0.6743985414505005 0.0
1.6785967350006104 0.6649783849716187 0.0
1.9543375968933105 0.5452249050140381 0.0
0.04566239193081856 0.5452249050140381 0.0
1.6567095518112183 0.5496091842651367 0.0
1.53738272190094 0.5491842031478882 0.0
0.91306072473526 0.8965699672698975 0.0
1.7782752513885498 0.5446287989616394 0.0
1.4163299798965454 0.5447981357574463 0.0
0.4287482798099518 0.8945969939231873 0.0
1.2610714435577393 0.8950135707855225 0.0
0.4313095211982727 0.6832783222198486 0.0
0.31561949849128723 0.6858259439468384 0.0
1.029850721359253 0.6781684160232544 0.0
0.9082015752792358 0.6848641633987427 0.0
1.1492537260055542 0.6781684160232544 0.0
0.7886138558387756 0.678956151008606 0.0
1.2709345817565918 0.684736430644989 0.0
0.6685023903846741 0.6868807673454285 0.0
1.4007169008255005 0.6702371835708618 0.0
0.5483440160751343 0.6792802214622498 0.0
0.19808045029640198 0.6887137293815613 0.0
1.797759771347046 0.6853783130645752 0.0
0.6811949610710144 0.8757594227790833 0.0
1.0189321041107178 0.8474968671798706 0.0
0.7922950983047485 0.8446238040924072 0.0
1.3765455484390259 0.8590760827064514 0.0
1.1571698188781738 0.8478953838348389 0.0
1.8954496383666992 0.5359624624252319 0.0
1.8360060453414917 0.5359931588172913 0.0
0.10455036163330078 0.5359624624252319 0.0
0.16417928040027618 0.5353734493255615 0.0
0.5530290007591248 0.8422092199325562 0.0
0.2832632064819336 0.5367912650108337 0.0
0.22469767928123474 0.5394234657287598 0.0
0.9405550956726074 0.5357381105422974 0.0
0.9997434020042419 0.5357381105422974 0.0
1.0600273609161377 0.5365630984306335 0.0
1.1191463470458984 0.5357381105422974 0.0
0.8802711367607117 0.5365630984306335 0.0
0.8211521506309509 0.5357381105422974 0.0
1.2385493516921997 0.5357381105422974 0.0
1.179430365562439 0.5365630984306335 0.0
0.7608681321144104 0.5365630984306335 0.0
0.7017492055892944 0.5357381105422974 0.0
1.2988333702087402 0.5365630984306335 0.0
1.357560396194458 0.5390686392784119 0.0
0.5823462605476379 0.5357381105422974 0.0
0.6414651870727539 0.5365630984306335 0.0
0.5220622420310974 0.5365630984306335 0.0
0.4629422128200531 0.535739541053772 0.0
0.3435409665107727 0.5357455015182495 0.0
0.4026572108268738 0.5365669131278992 0.0
0.21006634831428528 0.8590372204780579 0.0
1.7943172454833984 0.8627070188522339 0.0
0.06134982034564018 0.7191494703292847 0.0
1.938650131225586 0.7191494703292847 0.0
1.634666085243225 0.7584379315376282 0.0
0.3355695903301239 0.8387951850891113 0.0
1.537941336631775 0.7633647918701172 0.0
1.9670078754425049 0.574067234992981 0.0
0.032992132008075714 0.574067234992981 0.0
1.6862140893936157 0.5314788222312927 0.0
1.6272135972976685 0.5317342281341553 0.0
1.5077245235443115 0.5309156775474548 0.0
1.5668202638626099 0.5316618084907532 0.0
1.7466963529586792 0.5298213958740234 0.0
1.4473658800125122 0.5297333002090454 0.0
1.804386019706726 0.5275400876998901 0.0
1.9283779859542847 0.5282225012779236 0.0
1.8656879663467407 0.5267112255096436 0.0
0.13432854413986206 0.5271331071853638 0.0
0.07162196189165115 0.5282225012779236 0.0
0.25373148918151855 0.527070939540863 0.0
0.19419340789318085 0.5297109484672546 0.0
0.31349387764930725 0.5272363424301147 0.0
0.37313446402549744 0.5270199179649353 0.0
0.4329495429992676 0.5274069309234619 0.0
0.49253740906715393 0.5270196795463562 0.0
0.5523557066917419 0.5274024605751038 0.0
1.3898069858551025 0.5277745127677917 0.0
1.3283581733703613 0.5270196795463562 0.0
0.6119403839111328 0.5270196795463562 0.0
1.2685397863388062 0.5274024605751038 0.0
0.6717586517333984 0.5274024605751038 0.0
0.7313433289527893 0.5270196795463562 0.0
1.20895516872406 0.5270196795463562 0.0
0.7911616563796997 0.5274024605751038 0.0
0.8507462739944458 0.5270196795463562 0.0
1.1491369009017944 0.5274024605751038 0.0
1.0895521640777588 0.5270196795463562 0.0
0.9105646014213562 0.5274024605751038 0.0
0.9701492786407471 0.5270196795463562 0.0
1.0297338962554932 0.5274024605751038 0.0
1.4776118993759155 0.5259945392608643 0.0
1.597015619277954 0.5255197882652283 0.0
1.7164177894592285 0.525999903678894 0.0
1.6834615468978882 0.8477573990821838 0.0
1.5822722911834717 0.6086509227752686 0.0
0.20459823310375214 0.6270732283592224 0.0
1.8037469387054443 0.6209055185317993 0.0
0.09990309923887253 0.8589919805526733 0.0
1.9000968933105469 0.8589919805526733 0.0
1.75603187084198 0.5789161324501038 0.0
0.10896337777376175 0.5982794761657715 0.0
1.8910366296768188 0.5982794761657715 0.0
1.4950518608093262 0.605266273021698 0.0
1.7049394845962524 0.6007562279701233 0.0
1.4387125968933105 0.5775743722915649 0.0
1.489302158355713 0.851039469242096 0.0
0.15732239186763763 0.5961292386054993 0.0
1.8436260223388672 0.5944437384605408 0.0
0.4399496018886566 0.6259797215461731 0.0
1.022565245628357 0.6257523894309998 0.0
[...]
POINT_DATA 348
SCALARS Psi double
LOOKUP_TABLE default
1.087898474505924
1.0
1.0
1.0766684692566508
1.08778800623088
1.0875451104727007
1.089146808444091
1.0938728055775055
1.1033510760286045
1.141821749179056
1.0
1.0
1.0
1.0
1.0
1.0
1.0
1.0
1.0
1.0
1.0
1.134268546394867
1.0942751242409714
1.08447503548319
1.0798819113724154
1.0777145537983535
1.0768590541920349
1.0879812890902119
1.0867118737203725
1.0848223047273082
1.0824207999612858
1.0794798105856485
1.07602374795363
1.072121873732848
1.067867293876582
1.063383460786057
1.058758476421629
1.0540920620728422
1.0494630468909816
1.0449565223378905
1.0406243933955965
1.0364944248356587
1.0325996192881302
1.0289672844690974
1.0256109400016185
1.022518384511895
1.019694496826372
1.0171381906735901
1.014844862038266
1.0127905844152452
1.0109687791865816
1.0093691715629967
1.0079826246133305
1.006788756264428
1.005780375975897
1.004949402854954
1.004289002796306
1.0037866646418772
1.0034382993191449
1.0032411995660635
1.0031934442640664
1.0032914481784947
1.0035346311375932
1.0039285742434343
1.0044762170590718
1.005180781898332
1.0060462357462607
1.0070859529070788
1.0083062724644758
1.0097144700032175
1.0113162605269794
1.01313455284588
1.015174058034414
1.0174309700494049
1.0199346785756542
1.0226764930901877
1.0256555034855903
1.0288722148436515
1.0323240682516095
1.0359903891850484
1.0398395377928127
1.043833844027101
1.0479255363452622
1.0520543032562504
1.056143908295616
1.0601072579918167
1.063838174018811
1.0672402127748346
1.0702047587100714
1.0726291927367868
1.0744756476863098
1.0757491274576965
1.0764613444357876
1.0467867111097573
1.0518854974995382
1.0201199545674888
1.0058086488405595
1.0016730890732686
1.0036439487144984
1.0139159671409503
1.0733682570847318
1.0821127466395413
1.031107448464237
1.0635343109924669
1.05668960579056
1.042553003594754
1.0268241535057892
1.0156243623884607
1.0084497788026707
1.0043633587494203
1.0028457867717406
1.0030421303404156
1.0054010944040521
1.0102988518924907
1.0190457071421795
1.0762815970208472
1.0856765450456465
1.0292513434325194
1.0445295116975228
1.0659083918864496
1.074034191606727
1.0030690600137624
1.0045811566255423
1.003818930541047
1.00861171142697
1.007031564622535
1.0132384594372137
1.0232041804417353
1.0157540903958924
1.0374860201990779
1.0554784179709455
1.0719808302860205
1.0811616401265087
1.0372069616075352
1.0782438794756393
1.0863580194891487
1.0536728172765153
1.0235734735173017
1.0130768691662677
1.0652546100949638
1.0031970524730789
1.0035798881936282
1.005165743127974
1.0063427129973443
1.0098477968556063
1.0118732770505945
1.0179114426600129
1.0300947466121604
1.0464794892480145
1.035694769451572
1.0123546184430787
1.003138742696462
1.0079927420496555
1.0019375177825844
1.0902638557374342
1.0807843178728218
1.0226367967517749
1.0445797931518532
1.0766486529924792
1.086929774230519
1.045499356402842
1.0301804044161158
1.0004324779457232
1.062223399494615
1.0182593122280006
1.0105238643737706
1.001480191094741
1.0321300518410312
1.049402649176809
1.0022866924229206
1.0028325832448013
1.0035487593324477
1.0056184817134273
1.0068375194662704
1.0105844966847823
1.0140169693416203
1.0195846246206133
1.0716959174673188
1.063540204139445
1.0033690888747684
1.0005515289266176
1.001909153008134
1.0044737988317995
1.001177079481909
1.0738826786535067
1.068932668685405
1.0837058532098738
1.0778577788648014
1.0080518454116696
1.0609556648016176
1.0698224662033307
1.003544909552945
1.003156898113449
1.0033514355711382
1.0041283491622512
1.004548002359553
1.006184409192837
1.0075849559332017
1.0055370177879717
1.008572133313149
1.0117220718824373
1.0104033157149337
1.013927017822841
1.0208731770420747
1.0158334216377767
1.0270743050416062
1.034252173226354
1.0515054291939074
1.0425620823574295
1.039556706561155
1.0362112339411247
1.0980435920039173
1.0884747659977387
1.0302226293673198
1.0266177484462236
1.0193764487887482
1.0777981806244485
1.086996083617932
1.0498144934644964
1.041708105056111
1.027115335910279
1.0339262736258443
1.0581499446394305
1.0211277923837363
1.065424181817122
1.0754785720491296
1.0715896555247995
1.0810291667557133
1.0859076136182346
1.0655604214028984
1.0740717861641134
1.0562842958539005
1.0470323712779106
1.0383626599148197
1.030604475212496
1.0238980839153062
1.0163204858116686
1.0121235364306338
1.018279258700601
1.0089275203722332
1.0137006778722415
1.0100775781268434
1.0065003902888203
1.0073102832351306
1.0053049710573414
1.0047733073657257
1.0036843055083704
1.0039874088495078
1.0032948803012105
1.0031996899315876
1.024037357582938
1.0377827111538038
1.0540276655971894
1.0247321279254635
1.0340237284795273
1.0720977954053887
1.065417477667327
1.0766798885028102
1.0694555700113695
1.059042705865715
1.0841870038584527
1.0751055971259569
1.0242340643880925
1.0512398238739915
1.019647045420269
1.0091319940554757
1.0790605294258295
1.0704032401573766
1.0344440063443245
1.002701771723347
1.0033116066654206
1.0039833364086301
1.006144247240466
1.0075903524985055
1.011737989708292
1.0131967721969042
1.0208948219763807
1.0530712580073691
1.0269044500744364
1.0769456125866275
1.0853521982253467
1.0490327200726328
1.0329780828114514
1.041576912820226
1.0531510677116362
1.0023830257253281
1.0026693188057758
1.003941891133697
1.0050219755394907
1.0079147626328553
1.0097441058479624
1.0144741786151839
1.025510829552051
1.041137867962173
1.107972033997302
1.099286006036082
1.076666239548355
1.0879553704915974
1.0607630654084235
1.0029734870243674
1.0032515757369493
1.003170662235999
1.0612209313493777
1.0037527086785225
1.0043770222429682
1.0056003462581775
1.0053642798870976
1.006900865355547
1.0083446693184686
1.0107080771130144
1.0101583380857495
1.0127990591731608
1.0154620518406965
1.0192794234283533
1.0265465388355801
1.068074896958609
1.032071649915725
1.0420100803880585
1.0488854790192106
1.0174362726640367
1.0457873258268566
1.0304818268432185
1.038647165776163
1.0014570165754673
1.0217583110289283
1.0389659103822322
1.0837777927920378
1.0744046642619094
1.0002569121773424
1.0282062276243185
1.0692428658326538
1.0781093475385677
1.0039401956853913
1.0875215093190813
1.0771331067684933
1.0872136409914535
1.0783251134840706
1.0690638753648538
1.0624278431759882
1.0620060165734677
1.0185975169905892
1.0010538007721466
1.0163453081958653
1.0065916817527363
1.076190835787422
1.0872104888628733
1.0528187222834897
1.046971093893173

SCALARS Omega double
LOOKUP_TABLE default
4.100276591395351
-10.327730795436393
-14.268649563398096
0.13217857057010432
4.492515426468678
-2.683794553308768
-4.473557660635048
3.542292223091264
1.031478153519614
20.842645460337277
-8.188675201154407
-0.4094725223256195
-0.8985275653947223
-0.23421395942891815
-0.11369097867290294
-0.030612111191763068
-0.11116900932549928
-0.18643504131293975
-0.6569892800272862
-0.6110339256927111
-6.115745385051138
17.943670585109256
3.5124636782392673
-1.0379081270118715
0.14534828365013464
0.033512257695767066
-0.32203140248210194
2.1113617298252976
1.091836779169979
0.714302174089384
0.5849518485728904
0.5327239424928801
0.5070780229780721
0.47819019534537094
0.44153688695118665
0.39741178056726123
0.34773268551766473
0.296246395664853
0.24497892024317033
0.1961831334924713
0.1508090029251948
0.10952048225737729
0.07261347350716055
0.04033345357998216
0.012569702994031911
-0.011155351328552478
-0.031081819754240767
-0.047524590625919655
-0.06081139786093896
-0.07154132509289585
-0.08001355261501902
-0.08658310711940867
-0.09151389784847865
-0.09520530149705728
-0.09785149337324214
-0.09967300325037247
-0.10081314043527087
-0.10146383312798526
-0.10170958671954668
-0.10162686877273357
-0.10124796093494308
-0.10059290948702017
-0.09964829274198461
-0.09834303166430304
-0.09661228012297687
-0.09434272394823517
-0.09142625853605905
-0.08763222668298248
-0.0827984310728676
-0.07668844522960913
-0.06909527064087922
-0.05954731728998676
-0.04780290324899531
-0.033664973884568836
-0.01647275171138996
0.00391049911477916
0.027743081705397327
0.055309120538052495
0.08677693338099945
0.122036904922506
0.16057613136123647
0.20168960504381592
0.2440135057811011
0.285935088869964
0.32478694600413105
0.35760137009329523
0.37954715493412894
0.38524800492439726
0.37065562196715324
0.33000239086037747
0.26103410293964424
0.16510919313806643
0.06635078647354896
0.3151066787096028
0.3393627792574008
-0.11646412749202736
-0.1309118566741227
-0.10570544244092701
-0.11366535237392114
-0.1238549695646475
0.7178328075969213
0.8448250621503364
0.04691930011500628
0.46988162820805635
0.4081247471794164
0.1669496075585965
0.002897547176016273
-0.07395212630422526
-0.10007944145137052
-0.10519634428404726
-0.10385548595429439
-0.10230780757967978
-0.09843631749200199
-0.08460653283819201
-0.04068562454006666
0.30650981069082883
0.09488991775532245
0.05186250843021045
0.21730105434242333
0.43991741008702
0.5280590909252779
-0.10168073739653438
-0.09715105264306675
-0.10234065546946897
-0.08372762102397235
-0.0965915990944936
-0.07320444395567136
-0.0111719327179809
-0.048931336380811534
0.1162785066339517
0.3207472807168496
0.40938443047297524
0.49085197054194357
0.13352109534980763
2.2490601200614515
2.5274009286826553
0.31560108615784704
0.0072441767339242675
-0.31878313544532055
0.43428948388213234
-0.10231092621953027
-0.09981692806258494
-0.10036161191437347
-0.0915779015535046
-0.0871125927506786
-0.06873062135239733
-0.046554572855868594
0.04633405893014953
0.21351020278445473
0.04064205045428868
-0.143443166393695
-0.1168035578791206
-0.12342029435498335
-0.10619346693385742
0.96762723286075
0.5747828401965478
-0.031028869523479687
0.23799457140307004
0.14049951445095568
0.4503874092272041
0.2219093738209231
0.06523625353675015
-0.09857906644598646
0.3875232242056302
-0.030069434433585816
-0.418883988107922
-0.15081365778220637
0.03255470394322522
0.2753749214095359
-0.1046161632888438
-0.10807518480196715
-0.10488149130391021
-0.11268902260529565
-0.104972139677961
-0.11310599821793113
-0.08190653120087558
-0.07324263405357634
0.8361155033639335
0.6923071888275927
-0.20088340153522355
-0.09796264605062198
-0.1424951330119939
-0.20891313998542244
-0.11464430760761223
0.321603500233214
0.39908267500532457
0.5432661528297594
0.5181516061357886
-0.30164007038533835
0.3762588670957617
0.4676878473958966
-0.10188407619973923
-0.10167070349525206
-0.10038421079399514
-0.09788440007339959
-0.10072930314456191
-0.09731626898119052
-0.08620622829602144
-0.09350530320809881
-0.09023276549003141
-0.07756313163583557
-0.07426981170254845
-0.056273975080869613
-0.02430827553243255
-0.05649859200221926
0.023020098191602927
0.08697762293892175
0.26890621586237506
0.17062922353132623
-0.619190929492095
-0.5147470841172068
2.329445225118665
1.977775432656149
-0.011509735355505368
-0.23816940700264633
-0.12062838988465618
0.16690677657326558
-1.0217322041327435
0.26552628033312453
0.18017280045805528
0.03920614717719096
0.10148348527352251
0.3466251469722803
-0.008566668969087976
0.39209163256966745
0.218606441860439
0.3652351841191591
0.5338230402321372
0.7124939981817123
0.4234154728676687
0.4972714401489869
0.3222716188818935
0.21880357136890063
0.12752218731560738
0.053812359521971255
-0.0016606519162787835
-0.041427650444730485
-0.06554031119216419
-0.041222420551393496
-0.08056138243401362
-0.06760899316053355
-0.08431587013445638
-0.09007820840977936
-0.09403104485909747
-0.09919241075014724
-0.0958260682414526
-0.09921886260524239
-0.10139610467564251
-0.10184407580411933
-0.10108332295730878
0.013962250850578423
0.13979943912282738
0.3076025263573017
-0.26389127315771427
0.09725913339142035
0.6218180596334836
0.5337798651870735
2.903995377801434
2.155648207265617
0.3856460207455354
0.4315959595354886
0.47340738223754303
0.005161758004872104
0.30623706254334976
-0.0244103848968187
-0.2810106959154422
0.5921227818731319
0.5085895250221836
0.07552629316202436
-0.10322296887608547
-0.10472893921654892
-0.10082993819075356
-0.10385718316024273
-0.09299651549657713
-0.08998797085708159
-0.07147385155885373
-0.04182883895666886
0.31016150189192704
0.03413599037498551
1.252325461261695
1.478574822790339
0.2651621003449185
0.09036934035654254
0.18033095470616228
0.4136173790001704
-0.10537196689799042
-0.10433475528511418
-0.11016426596142313
-0.1044455063233379
-0.1120011600149846
-0.0977274694772573
-0.09915262606917058
-0.0284900432513214
0.14423106337726943
5.598342302591846
5.403331021628944
-0.012855761300669859
2.097569030710175
0.488852870312394
-0.10265928972946896
-0.10312383634335832
-0.10135194605659266
0.40199689968117647
-0.0998380553834411
-0.10270297647225615
-0.10100566888255785
-0.09587048404824218
-0.0912424791436177
-0.09487819302998965
-0.08672286982678742
-0.07944071603475768
-0.06713690872662882
-0.0653183084893921
-0.042286178499976235
0.010999425357692426
0.48867830817115476
0.06039491839246513
0.16287202191371508
0.24370900185601882
-0.0690211703718512
0.2226250902271074
0.06938332803408183
0.14914127614706862
-0.10985028243053166
-0.16829937846705667
0.15224910600470734
0.38217091777760065
0.3751898652400417
-0.08900149604249562
0.032410881777569046
0.4400053669957483
0.5321896093695458
-0.13409298090509944
0.4668976837174713
0.011219789280430754
-0.5101373601023712
0.3408516063693141
1.0203185730899738
0.9271598518389561
0.373323866650376
-0.026222501829898413
-0.17256911002306677
-0.05296720420469985
-0.1661729546624017
0.11856080318423863
1.2482118262418542
0.5729328676151796
-1.2167721124877504

SCALARS Vx_analytic double
LOOKUP_TABLE default
4.100276591395351
-10.327730795436393
-14.268649563398096
0.13210637964569574
4.492515426468678
-2.683794553308768
-4.473557660635048
3.542292223091264
1.031478153519614
20.842645460337277
-8.188675201154407
-0.4094725223256195
-0.8985275653947223
-0.23421395942891815
-0.11369097867290294
-0.030612111191763068
-0.11116900932549928
-0.18643504131293975
-0.656989280027286
-0.6110339256927111
-6.115745385051138
17.943670585109256
3.5132646958975537
-1.015770522164368
0.14755553987777514
0.03451969899721607
-0.32007619909239005
2.1113617298252976
1.091836779169979
0.714302174089384
0.5849518485728904
0.5327239424928801
0.5070780229780721
0.47819019534537094
0.44153688695118665
0.39741178056726123
0.34773268551766473
0.296246395664853
0.24497892024317033
0.1961831334924713
0.1508090029251948
0.10952048225737729
0.07261347350716055
0.04033345357998216
0.012569702994031911
-0.011155351328552478
-0.031081819754240767
-0.047524590625919655
-0.06081139786093896
-0.07154132509289585
-0.08001355261501902
-0.08658310711940867
-0.09151389784847865
-0.09520530149705728
-0.09785149337324214
-0.09967300325037247
-0.10081314043527087
-0.10146383312798526
-0.10170958671954668
-0.10162686877273357
-0.10124782764891598
-0.10059294204033531
-0.09964845504779958
-0.0983435018995573
-0.09661312131729585
-0.09434451871715778
-0.09142861870319444
-0.08763597043636027
-0.08280334278764437
-0.0766966137951833
-0.06910496134713269
-0.059561448512862755
-0.047822987539086675
-0.03367246039552553
-0.016485391451561523
0.0038884095105210536
0.027721518385382067
0.0552974741150255
0.08676827990035385
0.12202034388242547
0.16057453055779208
0.20170954643137579
0.24406643450360055
0.28600158380088886
0.3248965446909512
0.3577128693746412
0.37972785692928274
0.3856007159068283
0.3710283160670329
0.3304074131021983
0.26136830543607814
0.1653518506053441
0.06630766750139298
0.3072890282178262
0.33717061452077096
-0.11573714656003689
-0.13079943947982203
-0.10570535512355643
-0.11372780229923116
-0.1245635302413419
0.726999738782512
0.834761725426976
0.04600727050667127
0.46799101154752576
0.410507346960664
0.16692146289131438
0.003136668824500302
-0.07378379845184103
-0.10001567391795375
-0.10518127231378248
-0.10385296486695443
-0.10231052802959939
-0.09846832164047807
-0.08473012843909532
-0.041016717923320706
0.3086317366365293
0.10164156815080035
0.05153787113031752
0.21754434337202114
0.4422804079350508
0.5270414712543692
-0.10168036655083873
-0.09715932322523396
-0.1023372846425859
-0.08377000668554069
-0.09657556248155405
-0.07315791419900695
-0.011102327662223438
-0.04907507932859038
0.11625277765662746
0.3202582298914774
0.4115959586538859
0.49215553312068544
0.13340677181620067
2.2562437466214202
2.4658842148375077
0.3162010447827199
0.007045941752786812
-0.31995283261141094
0.4335301034135923
-0.10230954769814694
-0.0998188402632513
-0.10035371804575892
-0.09159326976776774
-0.08708221543224647
-0.0687861153442943
-0.046483303437494156
0.046411186947716364
0.21338885459262202
0.041510521744932374
-0.14299730792763757
-0.11677288635828846
-0.12376119510972192
-0.1062044599437727
0.8926160215203328
0.5831067609987904
-0.031782754694360156
0.23793720672146448
0.1418866574592322
0.45922610610622183
0.22203848098110554
0.06507796699780757
-0.09857956794960719
0.3884750777203353
-0.030156942437608032
-0.4175139088455462
-0.15089691667491975
0.032833074895156765
0.27463727441339214
-0.10461649295329778
-0.1080643463216711
-0.10490610193081312
-0.11263371909495734
-0.10508948353594588
-0.11291175052226411
-0.08229300621616727
-0.0728763247847215
0.8282370826627962
0.6979119990899949
-0.20066822436039147
-0.09797116703153737
-0.14243482955373094
-0.20985491953527957
-0.11468425977899102
0.3229199860490115
0.400466160359885
0.5455847679288992
0.5182087427676612
-0.30079309657153197
0.37596233365113096
0.4672919894447291
-0.10188333045176814
-0.10167020730942046
-0.10038502890640001
-0.09788823854526359
-0.10072764797214026
-0.09731253721436507
-0.08622901541129543
-0.09351735548116183
-0.09022641066152817
-0.07755275575004503
-0.07432039420291342
-0.056350997443117175
-0.024297351234068582
-0.0564879194758372
0.023012124121482506
0.0869455979789816
0.2687318303381555
0.17053225418687185
-0.6002055555259805
-0.5404004018212041
2.332489161030402
1.9952133237032383
-0.014257358255362798
-0.2352658413399391
-0.12196078555225016
0.16889580909607163
-1.0064285288169048
0.26576571578000463
0.18013718698329484
0.039050865949270465
0.10135564260114688
0.34736219757464626
-0.008684319443426297
0.39328239635329065
0.21971500681144468
0.3663367858563236
0.5347506766807425
0.7167242441772491
0.4231117937817635
0.4970539901841576
0.3221079645657066
0.21875178329743328
0.12751921381776896
0.05384393201704205
-0.0016322894196902648
-0.041511911549733146
-0.06558852477008562
-0.04119317859881797
-0.08058918605209657
-0.06759113277105934
-0.08430334731380335
-0.09009150162784368
-0.09402489190921288
-0.09918920923095967
-0.09583184572019487
-0.0992206460813077
-0.10139490965347629
-0.10184361020352078
-0.1010834154964435
0.013839356920766214
0.13970756573286203
0.3079784830521034
-0.26982869697769124
0.09687450540498128
0.6181302600909003
0.5377275131524953
2.8036412452530675
1.988321001378148
0.3871698791887597
0.4280201239662671
0.47752159428378116
0.004780602870669819
0.30695853228095105
-0.024649601426662983
-0.2824246628749778
0.5891893005313926
0.5124021151991145
0.07569952319121477
-0.1032224603551118
-0.10472312727441045
-0.1008427320089644
-0.10382419512263906
-0.09306743180197201
-0.08988417115374056
-0.07166214313149952
-0.04160908275308534
0.30944238264541507
0.03395512403910199
1.2650001535190452
1.460233963301024
0.26559395215672416
0.09019050064879709
0.1803862359399245
0.41485591046484904
-0.10536896235357306
-0.10433930005169348
-0.11013665881764854
-0.10448760294759007
-0.11189194719511435
-0.09790551172931451
-0.09883423321571357
-0.028031205035884656
0.1441547257623286
5.320999423523848
5.209113620693598
-0.012093327464606191
2.0940044611014343
0.48593036170382053
-0.10265782145586133
-0.10312143453117781
-0.10135356153896849
0.4010911438354223
-0.09984342183963867
-0.1026951536381528
-0.10099102635241611
-0.09589104254583987
-0.09127527610510758
-0.09484443757848142
-0.086670605209704
-0.07952305266674446
-0.06724861034969976
-0.06522696170330151
-0.042173116021335603
0.011130154360414615
0.4872496262962148
0.060495842168394896
0.16281780513873437
0.24343739592026842
-0.06948058667589035
0.22266343541788286