# vtk DataFile Version 1.0
2D Simulation C++
ASCII
DATASET UNSTRUCTURED_GRID
FIELD FieldData 1
NODES 1 2 int
348 601

POINTS 348 double
0.0 0.5 0.0
0.0 1.0 0.0
2.0 1.0 0.0
2.0 0.5 0.0
0.0 0.528801679611206 0.0
0.0 0.564507782459259 0.0
0.0 0.6110168099403381 0.0
0.0 0.6721802353858948 0.0
0.0 0.7528436183929443 0.0
0.0 0.8593378663063049 0.0
0.16666941344738007 1.0 0.0
0.3333356976509094 1.0 0.0
0.5000020265579224 1.0 0.0
0.6666678786277771 1.0 0.0
0.8333337306976318 1.0 0.0
1.0 1.0 0.0
1.1666662693023682 1.0 0.0
1.3333321809768677 1.0 0.0
1.4999979734420776 1.0 0.0
1.6666642427444458 1.0 0.0
1.8333306312561035 1.0 0.0
2.0 0.8593378663063049 0.0
2.0 0.7528436183929443 0.0
2.0 0.6721802353858948 0.0
2.0 0.6110168099403381 0.0
2.0 0.564507782459259 0.0
2.0 0.528801679611206 0.0
0.029850948601961136 0.5 0.0
0.05970168858766556 0.5 0.0
0.08955242484807968 0.5 0.0
0.1194031685590744 0.5 0.0
0.14925390481948853 0.5 0.0
0.17910465598106384 0.5 0.0
0.20895539224147797 0.5 0.0
0.2388061285018921 0.5 0.0
0.2686568796634674 0.5 0.0
0.29850760102272034 0.5 0.0
0.32835835218429565 0.5 0.0
0.35820910334587097 0.5 0.0
0.3880598247051239 0.5 0.0
0.4179105758666992 0.5 0.0
0.44776129722595215 0.5 0.0
0.47761204838752747 0.5 0.0
0.5074627995491028 0.5 0.0
0.5373135209083557 0.5 0.0
0.5671642422676086 0.5 0.0
0.5970150232315063 0.5 0.0
0.6268657445907593 0.5 0.0
0.6567164659500122 0.5 0.0
0.6865672469139099 0.5 0.0
0.7164179682731628 0.5 0.0
0.7462686896324158 0.5 0.0
0.7761194705963135 0.5 0.0
0.8059701919555664 0.5 0.0
0.8358209133148193 0.5 0.0
0.865671694278717 0.5 0.0
0.89552241563797 0.5 0.0
0.9253731369972229 0.5 0.0
0.9552239179611206 0.5 0.0
0.9850746393203735 0.5 0.0
1.0149253606796265 0.5 0.0
1.0447760820388794 0.5 0.0
1.0746268033981323 0.5 0.0
1.1044776439666748 0.5 0.0
1.1343283653259277 0.5 0.0
1.1641790866851807 0.5 0.0
1.1940298080444336 0.5 0.0
1.2238805294036865 0.5 0.0
1.2537312507629395 0.5 0.0
1.2835819721221924 0.5 0.0
1.3134328126907349 0.5 0.0
1.3432835340499878 0.5 0.0
1.3731342554092407 0.5 0.0
1.4029849767684937 0.5 0.0
1.4328356981277466 0.5 0.0
1.4626864194869995 0.5 0.0
1.492537260055542 0.5 0.0
1.522387981414795 0.5 0.0
1.5522387027740479 0.5 0.0
1.5820894241333008 0.5 0.0
1.6119401454925537 0.5 0.0
1.6417908668518066 0.5 0.0
1.6716417074203491 0.5 0.0
1.701492428779602 0.5 0.0
1.731343150138855 0.5 0.0
1.761193871498108 0.5 0.0
1.7910445928573608 0.5 0.0
1.8208953142166138 0.5 0.0
1.8507460355758667 0.5 0.0
1.8805968761444092 0.5 0.0
1.910447597503662 0.5 0.0
1.940298318862915 0.5 0.0
1.970149040222168 0.5 0.0
1.7358819246292114 0.7499510645866394 0.0
0.2656642198562622 0.7486277222633362 0.0
0.49981194734573364 0.737183690071106 0.0
0.74151611328125 0.7359843254089355 0.0
0.9774143695831299 0.7371892929077148 0.0
1.201690912246704 0.7367381453514099 0.0
1.447761058807373 0.7383390665054321 0.0
1.8591958284378052 0.6421071290969849 0.0
0.14080412685871124 0.6421071290969849 0.0
1.588537573814392 0.6783608794212341 0.0
0.2553686201572418 0.6221352219581604 0.0
1.7466964721679688 0.6278358101844788 0.0
0.38199201226234436 0.6273008584976196 0.0
0.5013589859008789 0.6272794008255005 0.0
0.6207823157310486 0.6272526383399963 0.0
0.7401852607727051 0.627252459526062 0.0
0.8595882654190063 0.6272523999214172 0.0
0.9701492786407471 0.6212864518165588 0.0
1.0807102918624878 0.6272523999214172 0.0
1.2001131772994995 0.6272523999214172 0.0
1.3195161819458008 0.6272523999214172 0.0
1.4488563537597656 0.6310953497886658 0.0
1.9247323274612427 0.5706554055213928 0.0
0.07526770234107971 0.5706554055213928 0.0
1.5377081632614136 0.5910930037498474 0.0
1.6566967964172363 0.5934624075889587 0.0
1.8074009418487549 0.5708622932434082 0.0
0.1940300166606903 0.5737577676773071 0.0
1.0286364555358887 0.5665481686592102 0.0
1.14803946018219 0.5665481686592102 0.0
0.9116620421409607 0.5665481686592102 0.0
1.2674424648284912 0.5665481686592102 0.0
0.7922590970993042 0.5665481686592102 0.0
0.6728560328483582 0.5665482878684998 0.0
0.5534531474113464 0.5665481686592102 0.0
1.3892061710357666 0.5727682709693909 0.0
0.43402159214019775 0.5665869116783142 0.0
0.3146642744541168 0.5667200088500977 0.0
1.8656742572784424 0.5607567429542542 0.0
0.1343258023262024 0.5607567429542542 0.0
1.5970147848129272 0.5642029047012329 0.0
1.8783670663833618 0.7786769866943359 0.0
0.12163297086954117 0.7786769866943359 0.0
1.7164177894592285 0.562579333782196 0.0
1.4776118993759155 0.5620538592338562 0.0
1.5857784748077393 0.867691159248352 0.0
0.25373148918151855 0.5588531494140625 0.0
0.9701492786407471 0.5582930445671082 0.0
1.0895521640777588 0.5582930445671082 0.0
0.8507462739944458 0.5582930445671082 0.0
1.20895516872406 0.5582930445671082 0.0
0.7313433289527893 0.5582930445671082 0.0
1.3283581733703613 0.5582930445671082 0.0
0.6119403839111328 0.5582930445671082 0.0
0.49253740906715393 0.5582930445671082 0.0
0.37313446402549744 0.5582956075668335 0.0
0.36864349246025085 0.7376502752304077 0.0
0.602456271648407 0.7355343103408813 0.0
0.8441241383552551 0.7366551756858826 0.0
1.3355978727340698 0.7366551160812378 0.0
1.0895521640777588 0.7378703355789185 0.0
0.07051979005336761 0.6486480832099915 0.0
1.9294801950454712 0.6486480832099915 0.0
1.5086064338684082 0.6743985414505005 0.0
1.6785967350006104 0.6649783849716187 0.0
1.9543375968933105 0.5452249050140381 0.0
0.04566239193081856 0.5452249050140381 0.0
1.6567095518112183 0.5496091842651367 0.0
1.53738272190094 0.5491842031478882 0.0
0.91306072473526 0.8965699672698975 0.0
1.7782752513885498 0.5446287989616394 0.0
1.4163299798965454 0.5447981357574463 0.0
0.4287482798099518 0.8945969939231873 0.0
1.2610714435577393 0.8950135707855225 0.0
0.4313095211982727 0.6832783222198486 0.0
0.31561949849128723 0.6858259439468384 0.0
1.029850721359253 0.6781684160232544 0.0
0.9082015752792358 0.6848641633987427 0.0
1.1492537260055542 0.6781684160232544 0.0
0.7886138558387756 0.678956151008606 0.0
1.2709345817565918 0.684736430644989 0.0
0.6685023903846741 0.6868807673454285 0.0
1.4007169008255005 0.6702371835708618 0.0
0.5483440160751343 0.6792802214622498 0.0
0.19808045029640198 0.6887137293815613 0.0
1.797759771347046 0.6853783130645752 0.0
0.6811949610710144 0.8757594227790833 0.0
1.0189321041107178 0.8474968671798706 0.0
0.7922950983047485 0.8446238040924072 0.0
1.3765455484390259 0.8590760827064514 0.0
1.1571698188781738 0.8478953838348389 0.0
1.8954496383666992 0.5359624624252319 0.0
1.8360060453414917 0.5359931588172913 0.0
0.10455036163330078 0.5359624624252319 0.0
0.16417928040027618 0.5353734493255615 0.0
0.5530290007591248 0.8422092199325562 0.0
0.2832632064819336 0.5367912650108337 0.0
0.22469767928123474 0.5394234657287598 0.0
0.9405550956726074 0.5357381105422974 0.0
0.9997434020042419 0.5357381105422974 0.0
1.0600273609161377 0.5365630984306335 0.0
1.1191463470458984 0.5357381105422974 0.0
0.8802711367607117 0.5365630984306335 0.0
0.8211521506309509 0.5357381105422974 0.0
1.2385493516921997 0.5357381105422974 0.0
1.179430365562439 0.5365630984306335 0.0
0.7608681321144104 0.5365630984306335 0.0
0.7017492055892944 0.5357381105422974 0.0
1.2988333702087402 0.5365630984306335 0.0
1.357560396194458 0.5390686392784119 0.0
0.5823462605476379 0.5357381105422974 0.0
0.6414651870727539 0.5365630984306335 0.0
0.5220622420310974 0.5365630984306335 0.0
0.4629422128200531 0.535739541053772 0.0
0.3435409665107727 0.5357455015182495 0.0
0.4026572108268738 0.5365669131278992 0.0
0.21006634831428528 0.8590372204780579 0.0
1.7943172454833984 0.8627070188522339 0.0
0.06134982034564018 0.7191494703292847 0.0
1.938650131225586 0.7191494703292847 0.0
1.634666085243225 0.7584379315376282 0.0
0.3355695903301239 0.8387951850891113 0.0
1.537941336631775 0.7633647918701172 0.0
1.9670078754425049 0.574067234992981 0.0
0.032992132008075714 0.574067234992981 0.0
1.6862140893936157 0.5314788222312927 0.0
1.6272135972976685 0.5317342281341553 0.0
1.5077245235443115 0.5309156775474548 0.0
1.5668202638626099 0.5316618084907532 0.0
1.7466963529586792 0.5298213958740234 0.0
1.4473658800125122 0.5297333002090454 0.0
1.804386019706726 0.5275400876998901 0.0
1.9283779859542847 0.5282225012779236 0.0
1.8656879663467407 0.5267112255096436 0.0
0.13432854413986206 0.5271331071853638 0.0
0.07162196189165115 0.5282225012779236 0.0
0.25373148918151855 0.527070939540863 0.0
0.19419340789318085 0.5297109484672546 0.0
0.31349387764930725 0.5272363424301147 0.0
0.37313446402549744 0.5270199179649353 0.0
0.4329495429992676 0.5274069309234619 0.0
0.49253740906715393 0.5270196795463562 0.0
0.5523557066917419 0.5274024605751038 0.0
1.3898069858551025 0.5277745127677917 0.0
1.3283581733703613 0.5270196795463562 0.0
0.6119403839111328 0.5270196795463562 0.0
1.2685397863388062 0.5274024605751038 0.0
0.6717586517333984 0.5274024605751038 0.0
0.7313433289527893 0.5270196795463562 0.0
1.20895516872406 0.5270196795463562 0.0
0.7911616563796997 0.5274024605751038 0.0
0.8507462739944458 0.5270196795463562 0.0
1.1491369009017944 0.5274024605751038 0.0
1.0895521640777588 0.5270196795463562 0.0
0.9105646014213562 0.5274024605751038 0.0
0.9701492786407471 0.5270196795463562 0.0
1.0297338962554932 0.5274024605751038 0.0
1.4776118993759155 0.5259945392608643 0.0
1.597015619277954 0.5255197882652283 0.0
1.7164177894592285 0.525999903678894 0.0
1.6834615468978882 0.8477573990821838 0.0
1.5822722911834717 0.6086509227752686 0.0
0.20459823310375214 0.6270732283592224 0.0
1.8037469387054443 0.6209055185317993 0.0
0.09990309923887253 0.8589919805526733 0.0
1.9000968933105469 0.8589919805526733 0.0
1.75603187084198 0.5789161324501038 0.0
0.10896337777376175 0.5982794761657715 0.0
1.8910366296768188 0.5982794761657715 0.0
1.4950518608093262 0.605266273021698 0.0
1.7049394845962524 0.6007562279701233 0.0
1.4387125968933105 0.5775743722915649 0.0
1.489302158355713 0.851039469242096 0.0
0.15732239186763763 0.5961292386054993 0.0
1.8436260223388672 0.5944437384605408 0.0
0.4399496018886566 0.6259797215461731 0.0
1.022565245628357 0.6257523894309998 0.0
[...]
POINT_DATA 348
SCALARS Psi double
LOOKUP_TABLE default
1.087903534416638
1.0
1.0
1.0766787329874365
1.08779303293828
1.0875500120991557
1.0891514222043184
1.0938768114152173
1.1033539930674348
1.1418231240166363
1.0
1.0
1.0
1.0
1.0
1.0
1.0
1.0
1.0
1.0
1.0
1.1342709047313444
1.0942805143141832
1.0844827491625506
1.0798910321773492
1.077724434603985
1.0768692486933995
1.0879863871548492
1.0867171660731112
1.0848279391947908
1.0824269137213929
1.0794865418999224
1.0760312242130992
1.0721302165327586
1.0678766075224562
1.0633938498301734
1.0587700309683639
1.0541048564032642
1.0494771397307419
1.0449719713287522
1.0406412370406786
1.036512684540659
1.0326193002929736
1.0289883923718637
1.0256334612046933
1.0225422863483158
1.0197197321964928
1.0171647162749131
1.0148726181511567
1.012819492431446
1.0109987505602336
1.009400126119537
1.0080144702168767
1.0068213822548397
1.0058136668487205
1.0049832554450402
1.0043233077688671
1.0038212965953746
1.0034731335960236
1.003276127755465
1.0032283608383759
1.003326234450834
1.0035691666531081
1.0039627575763166
1.0045099537373137
1.0052139663032191
1.0060787667848574
1.0071177502616644
1.008337266994614
1.00974458368743
1.0113454231250845
1.0131627184867507
1.0152011921940152
1.0174570055405172
1.0199596126708854
1.0227003091500395
1.025678185922723
1.0288937662993987
1.0323445014862482
1.0360097282053853
1.0398578087947694
1.0438510838313932
1.0479417910990574
1.0520696294680711
1.0561583663469862
1.0601209120032065
1.0638510932193985
1.0672524852273404
1.070216460075728
1.0726404123863502
1.074486481201226
1.0757596611919893
1.076471682618764
1.0467937908526557
1.0518906688502832
1.0201313619957193
1.0058259014773927
1.0016925780969095
1.0036618934958572
1.0139291509971662
1.0733776830002428
1.0821181207483623
1.031121153339017
1.0635428102347655
1.0567014618877526
1.042565891867392
1.0268418765188532
1.01564678213188
1.0084760577998055
1.0043922154587226
1.0028760196294064
1.0030715674225028
1.0054287190103839
1.010323510747068
1.0190661561578265
1.0762917870534865
1.085681767623786
1.0292706404593877
1.044544853015143
1.0659203392907723
1.074041680276428
1.0031024755920248
1.0046132459857766
1.0038519895620004
1.0086410128516614
1.0070625033694593
1.0132656605200665
1.0232264691901098
1.0157792985072942
1.0375028693108375
1.0554901043102463
1.0719918820337766
1.0811678336385477
1.0372250119231587
1.0782486049391145
1.0863607618494222
1.0536871196770672
1.023595854082171
1.013080086190941
1.0652640992962086
1.0032307616830545
1.0036130920889075
1.0051981958398517
1.0063737848787584
1.0098772384948542
1.011900958020843
1.0179364474034374
1.0301144371061735
1.04649373732733
1.0357026454629195
1.0123688100278492
1.0031574353417312
1.008008319694874
1.0019565290211052
1.090268286269413
1.0807928876762398
1.0226529149858081
1.0445918862991808
1.0766588872286718
1.0869348695430836
1.0455156900898732
1.0302008891506527
1.0004368265987886
1.0622363530796457
1.0182843352464646
1.010526054199309
1.0014839317671955
1.0321424485783985
1.049411187339681
1.0023121281586038
1.0028571623942475
1.003573107244785
1.0056418839576684
1.0068590885526423
1.0106043953992427
1.0140364045425172
1.0196012637513145
1.0717014795197388
1.0635491125283891
1.0033739613178059
1.00055956312658
1.0019167700174771
1.004478762986616
1.0011846001325255
1.0738935573921833
1.068944489129618
1.0837116392110606
1.0778647823006655
1.0080572074429461
1.060966474520859
1.0698311756183503
1.0035792671630959
1.003191435885427
1.0033856946326138
1.0041619386964813
1.0045816870987574
1.0062170149205285
1.007616006879059
1.005569485558044
1.0086031637951298
1.011751196894792
1.0104325921967205
1.0139542991882522
1.0208974811973444
1.0158602337491813
1.0270958434157178
1.0342709339691725
1.0515187168902993
1.0425780112178085
1.0395582378330022
1.0362134153356335
1.0980470482467115
1.088481260178889
1.03023091684925
1.0266208935688599
1.0193861494719756
1.0778080191760322
1.0870009710197637
1.0498301370131775
1.0417256721872883
1.0271372439674031
1.0339459795701054
1.0581638672217895
1.021151993025026
1.0654367092619903
1.0754891384444105
1.0716010194528407
1.081035527515608
1.0859129909717293
1.065570180367601
1.0740796169548092
1.0562963703657406
1.0470470177067677
1.0383800775393808
1.0306247078255273
1.0239211251127827
1.0163468110594824
1.0121519730560162
1.0183049416840058
1.0089578480628991
1.0137288056753926
1.0101078129873637
1.0065323090667104
1.0073422878552885
1.0053382937611393
1.0048065230861303
1.003718406900566
1.0040216283158931
1.0033295013948624
1.0032342870043238
1.024060443010527
1.0378013839431977
1.0540424434128455
1.0247355473106896
1.0340408995557142
1.0721047768608454
1.0654283727670404
1.0766811529018148
1.06945765775877
1.0590556548335164
1.0841924279203556
1.075115679959411
1.024254290748627
1.0512535531796185
1.0196703416607011
1.0091368847246522
1.0790668570390776
1.0704140596319112
1.034459285955005
1.0027317343643987
1.0033413072220603
1.0040121615443467
1.0061721104127774
1.0076167069264288
1.0117625502813976
1.0132202794559388
1.020915005475423
1.0530816123001554
1.026925435224443
1.0769530354668975
1.085356393505779
1.0490478615760586
1.0329971376697338
1.0415937458930866
1.053161082414377
1.0024089077270273
1.0026943174964695
1.00396637614497
1.0050454552380366
1.007937046825896
1.0097649112152238
1.014492974415402
1.025525610415929
1.0411484883447544
1.1079743375144524
1.0992901106663568
1.0766765052615903
1.0879604277014185
1.0607704412838237
1.0030060401272847
1.0032838330498433
1.003202770158757
1.0612308499433005
1.0037844104664075
1.0044085721489973
1.0056311910365876
1.005394625768758
1.0069302500013952
1.0083736458507708
1.0107357332813713
1.0101856234517892
1.012824992811004
1.0154870034170986
1.0193026007855905
1.0265664956999674
1.0680833732646255
1.03208961900176
1.042024768747154
1.0488983615062506
1.0174536468628494
1.0458039737271214
1.0305027022987754
1.0386622216835342
1.0014704850512437
1.0217650473015638
1.0389824486635049
1.083783433692605
1.074415225833221
1.0002597392344557
1.0282234553613532
1.0692543107881212
1.0781160989283878
1.0039518123199402
1.08752648968064
1.0771432004480692
1.087218477736312
1.078334661905305
1.069067861419907
1.0624340513526112
1.0620192363854453
1.0186228933527766
1.0010560274348244
1.0163679212241232
1.0066031775242723
1.0762012399314487
1.0872156692071029
1.0528192131457113
1.0469718326699848

SCALARS Omega double
LOOKUP_TABLE default
4.1001381034276
-10.327881597749133
-14.268997509778028
0.13213025687508567
4.492485312399161
-2.68395858197413
-4.473682944871856
3.5422120166678774
1.0314886568920811
20.84265296858788
-8.188837147673768
-0.4097098342751003
-0.8989209203434495
-0.23482056299983417
-0.11441477112533166
-0.031380348580627666
-0.11185109940075333
-0.1870406473301776
-0.6574529880307729
-0.6113438674518771
-6.115984509958828
17.94351135335935
3.512485140461908
-1.037898969804206
0.1454210900118329
0.03349567224740474
-0.32188735452073763
2.1112696581480828
1.091758414666915
0.7142393173366558
0.584909084683001
0.5327048933037385
0.5070857018986946
0.4782274502432338
0.4416061065180404
0.3975155219061192
0.3478730404928354
0.2964251005920775
0.245197214183796
0.19644234860765425
0.15110982694233693
0.10986310720892027
0.0729975684043649
0.040758854071444785
0.013035614309282307
-0.010650303326865321
-0.030539440305454406
-0.04694635419518563
-0.06019928806091804
-0.0708979152598151
-0.07934166971313535
-0.08588507557866217
-0.09079239940357377
-0.09446365075136948
-0.09709309442793931
-0.09890064711082047
-0.10002979596459084
-0.10067307662753315
-0.10091492332299376
-0.10083110906684746
-0.10045379466991466
-0.09980358897835849
-0.0988671755648113
-0.09757273012380048
-0.09585517853705561
-0.09360174229184917
-0.0907042166991859
-0.08693117970008127
-0.08212007895582499
-0.07603496767479515
-0.06846864967312927
-0.05894866087816974
-0.047232983913617126
-0.0331260283413669
-0.01596454516091551
0.0043875090008400055
0.02818834233673167
0.05572267948731536
0.08715910888731936
0.12238834885541457
0.16089745982402867
0.2019817404477171
0.24427760084984484
0.28617259651127225
0.32499933961485417
0.3577901529943662
0.3797138380852719
0.38539461498115724
0.3707835328510571
0.33011310515454323
0.26112906446841594
0.16518882435554613
0.06640512388339051
0.3150499695909357
0.3392951898897587
-0.11641587303989641
-0.13077492608054292
-0.10554766890885127
-0.11353992783851698
-0.12381347079645937
0.7178901766686165
0.8447790594065555
0.04705211589353858
0.4699247155377017
0.40824533268622715
0.16711546818144363
0.0031933799991909983
-0.07353561774425768
-0.09956901165371548
-0.10462676162940499
-0.10325070337393759
-0.10173464212132358
-0.09791288209820487
-0.08416068194068267
-0.04035080918541814
0.3065859690568182
0.09481218901860337
0.052192978654988786
0.21752488611475387
0.440052188423471
0.5280704295004645
-0.10094787689138342
-0.09645840763978056
-0.10161163387765779
-0.08311332777664851
-0.095913456317336
-0.07262300741919056
-0.010723594917454787
-0.0484322922259406
0.11657298968884863
0.32088951716531966
0.4094915153791638
0.4908163137942227
0.13382778856048255
2.248971182915581
2.5273182546647672
0.3158040260240151
0.007670342588001778
-0.3190570267751689
0.4343644798082015
-0.10156379697416378
-0.09908857768948315
-0.09964206306547257
-0.09091104938700671
-0.08646917427199013
-0.06815806112482818
-0.046029334477869784
0.04671140899374038
0.21372971005691196
0.04062738000803629
-0.14334940192932183
-0.11665100160031704
-0.1233385674588242
-0.10605036832623708
0.9675530280838617
0.5748203594441427
-0.030838676859602517
0.23810256169929075
0.14056909989488037
0.4502972466038698
0.22217154192506453
0.06561390202299036
-0.09908069939360907
0.38768951165946075
-0.029565332714645235
-0.4191411124705267
-0.1512677854439225
0.03267989276121812
0.27540547652937913
-0.10421069947454244
-0.10769428700052167
-0.10450529627719082
-0.11231815489223959
-0.10467218035610854
-0.11281906045207886
-0.08163578165953063
-0.0730161697066013
0.8360770593312505
0.6923361309802215
-0.20124599820441086
-0.09829641571942868
-0.14279650944771943
-0.20925072438558925
-0.11497323943839675
0.32170254907586954
0.3992147163362724
0.5432112991607572
0.5181436109970352
-0.3018704704070762
0.3763756003629717
0.46773771290254634
-0.1011069454757352
-0.10089164991367408
-0.09961557977581564
-0.0971360499418182
-0.09996764877893691
-0.09658087264646396
-0.08553082439295157
-0.09278978557618632
-0.08953801415493313
-0.07691843567469514
-0.07364447542061647
-0.05570503837897986
-0.023795229436821476
-0.05591650780872194
0.02345510481602194
0.08733284441144665
0.26909912080843335
0.17090128101955698
-0.6193474530633126
-0.51495348051041
2.3293899834166067
1.977766818916834
-0.011564772550568068
-0.23833601010936534
-0.12067801687312396
0.16695796651991857
-1.021842492820886
0.26577145999187046
0.18047237211850953
0.03962730585441195
0.10184302996592486
0.3468210352696695
-0.008081322750297559
0.3922459376455516
0.21869074011555314
0.3653517193046466
0.5337907599416845
0.7124198415118664
0.4234990970146139
0.4972918590956348
0.32242771652150665
0.21903780766695613
0.127838812659862
0.054210840175294525
-0.001181961550326324
-0.04088300759694058
-0.06493700985228629
-0.04067004129641127
-0.07990483587309069
-0.06698958818565313
-0.08364026267489125
-0.0893768017234016
-0.09330904099311914
-0.0984373430909602
-0.09508717825853674
-0.09845384857607202
-0.1006193990007261
-0.1010596613814333
-0.1003021261185082
0.014416783343958597
0.14013064885202242
0.30782325692949636
-0.2641029385634345
0.09752501229621825
0.6218172457145441
0.5338781285501617
2.9038889868851148
2.1554620654357484
0.38580834172834994
0.43153806078262436
0.47348506608782065
0.0055096275750764045
0.3064154068243593
-0.023965639759667614
-0.2812803911217886
0.5920982257977548
0.5086894925229758
0.07575796214049146
-0.10263158808190748
-0.10413878280836301
-0.10027201112583417
-0.1033071303007955
-0.09250466000266444
-0.08951672670803715
-0.07105388395572837
-0.041467444227039976
0.3102565253052217
0.03452170845683268
1.25232341241157
1.4785119467093983
0.26538748024626546
0.09070191557799867
0.18060307112553559
0.4136689563789435
-0.10494662890768168
-0.10394281570557119
-0.10977200273786847
-0.10408843847576689
-0.11164910204777208
-0.09743365358621206
-0.09887741648205482
-0.02830380116305772
0.14431694165448405
5.598297092539892
5.403246804861461
-0.012780214817833977
2.097487921095057
0.48885925040168665
-0.10196102439629898
-0.10243335718837744
-0.1006708356371575
0.40208444315072545
-0.09916801930593012
-0.10202721637458567
-0.10034475238331748
-0.09524015203624417
-0.09063755965603591
-0.09426468012226613
-0.08614145230189033
-0.0788942855944883
-0.06662624095137842
-0.06480820927908752
-0.04182219454626287
0.011375012811799855
0.488721678238639
0.060715906999180586
0.1630994277050804
0.24388458450158357
-0.06880842280793174
0.2228994262411379
0.06977654799517115
0.14934186106274533
-0.10993951328599268
-0.16839064892084663
0.15250437481238763
0.3821135876192572
0.3752802610945708
-0.08957073397126171
0.03266161466883955
0.44012511385686726
0.5321753377990973
-0.13420665042824267
0.4667975050204068
0.011279321609529951
-0.5102275471014289
0.3409120833982879
1.0202398422201093
0.9270996936720874
0.37349934223481057
-0.025703366845564537
-0.17310322910073017
-0.052564026850826444
-0.16623935589785727
0.1186352510116335
1.2481289096766255
0.5728200877290762
-1.217028479373489

SCALARS Vx_analytic double
LOOKUP_TABLE default
4.1001381034276
-10.327881597749133
-14.268997509778028
0.1320582020572124
4.492485312399161
-2.68395858197413
-4.473682944871856
3.5422120166678774
1.0314886568920811
20.84265296858788
-8.188837147673768
-0.4097098342751003
-0.8989209203434495
-0.23482056299983417
-0.11441477112533166
-0.031380348580627666
-0.11185109940075333
-0.1870406473301776
-0.6574529880307727
-0.6113438674518771
-6.115984509958828
17.94351135335935
3.5132816157475815
-1.0157695801122464
0.14762743035523865
0.03450367052461496
-0.31993332079461173
2.1112696581480828
1.091758414666915
0.7142393173366558
0.584909084683001
0.5327048933037385
0.5070857018986946
0.4782274502432338
0.4416061065180404
0.3975155219061192
0.3478730404928354
0.2964251005920775
0.245197214183796
0.19644234860765425
0.15110982694233693
0.10986310720892027
0.0729975684043649
0.040758854071444785
0.013035614309282307
-0.010650303326865321
-0.030539440305454406
-0.04694635419518563
-0.06019928806091804
-0.0708979152598151
-0.07934166971313535
-0.08588507557866217
-0.09079239940357377
-0.09446365075136948
-0.09709309442793931
-0.09890064711082047
-0.10002979596459084
-0.10067307662753315
-0.10091492332299376
-0.10083110906684746
-0.10045366571046647
-0.09980364687550969
-0.09886738746768792
-0.09757326888917046
-0.0958561109449376
-0.09360364918538307
-0.09070671385269091
-0.08693507566842858
-0.08212516448454601
-0.07604332778314725
-0.06847855721360012
-0.05896303739765028
-0.0472533287115792
-0.03313371846223779
-0.015977399417345172
0.004365181382653366
0.02816652987173424
0.0557107852517448
0.08715020989757892
0.12237153437713563
0.1608956161160277
0.20200145363702698
0.2443303167951244
0.2862388762588958
0.32510874261532624
0.3579014955247979
0.3798944035186935
0.38574714310562713
0.371156056781497
0.330517983827639
0.2614631430381013
0.16543142181120016
0.0663621500609552
0.3072354847270682
0.3371045033348513
-0.11568683137067626
-0.13066113527405912
-0.10554749433136727
-0.11360350850042482
-0.12452314611194629
0.7270565289871794
0.834717710258542
0.04613817709732888
0.4680353090984576
0.4106271547207594
0.1670887771231685
0.0034340550585888743
-0.07336575131183129
-0.09950418911470989
-0.10461105242991295
-0.10324801746029397
-0.10173772875958714
-0.09794583564194292
-0.08428573291100772
-0.040683652718691746
0.30870722378814114
0.10156224036113026
0.05186679351649793
0.2177666570340375
0.44241396286906476
0.5270531902927691
-0.10094756897251561
-0.09646718650261074
-0.10160804757501576
-0.08315663010591325
-0.09589696241418286
-0.07257579976726006
-0.010653165702628467
-0.04857734170289655
0.11654809550906378
0.3204011358825309
0.4117021908035453
0.49211963753959925
0.13371220720176413
2.256171397563211
2.4657994238388423
0.31640292044627416
0.007470869095799747
-0.3202263434009721
0.4336056031294076
-0.10156233146405905
-0.09909072551100882
-0.09963384513123869
-0.09092699277270642
-0.08643824658534842
-0.06821442980704195
-0.045957337633277626
0.046789333805661165
0.2136090738137706
0.04149814333537911
-0.14290142043455878
-0.1166194306889878
-0.1236810544259064
-0.10606179823531026
0.892550375810239
0.5831425575289187
-0.031594303984752936
0.2380439583875632
0.1419558029236282
0.4591335414307153
0.222299633394044
0.06545455020990976
-0.0990810426081603
0.38864065144347065
-0.02965370111887639
-0.41777075117987744
-0.15135141847540007
0.032960269851578156
0.2746693342203152
-0.10421114152279193
-0.10768294424915276
-0.10453072465265668
-0.1122617864284985
-0.10479102689723993
-0.11262317682020315
-0.08202417471966089
-0.07264795508839819
0.8281994152125915
0.6979411767225352
-0.20102981361016464
-0.09830504595914104
-0.14273541986610674
-0.21019295272666846
-0.11501372356995261
0.323018577117164
0.40059759263908606
0.5455293625953557
0.5182007777598979
-0.3010221204010855
0.376079302776302
0.4673420651907871
-0.10110614751181295
-0.10089114441924424
-0.09961652119501092
-0.09714016570809102
-0.09996589800284725
-0.09657700484043043
-0.08555417740198125
-0.09280226934578964
-0.08953147994345849
-0.07690784765311305
-0.07369576237238994
-0.05578289240100482
-0.023784038647333004
-0.055905584906829245
0.023447421543639817
0.08730110385924425
0.2689249940811863
0.170804595626566
-0.600361083341057
-0.5405988189710567
2.332429493264357
1.9952141145810847
-0.014312412807454062
-0.23543098507214505
-0.12201134940427492
0.16894653333676748
-1.006540943380157
0.2660101349781642
0.18043593157235652
0.039471185356422994
0.10171436598639683
0.34755735012679184
-0.00819979048932263
0.39343608343464886
0.21979895081069709
0.36645288318761793
0.5347181985535289
0.7166489320536913
0.42319562940278543
0.49707451822705717
0.32226427563037235
0.21898625927406398
0.1278360748737154
0.054242659830894366
-0.0011533684370166907
-0.04096796825509788
-0.06498576565650706
-0.04064057564236899
-0.07993312294507755
-0.06697153368385955
-0.08362756784563126
-0.08939045763113082
-0.09330275396178397
-0.09843403882925332
-0.095093224967924
-0.09845577886534801
-0.10061814104641816
-0.10105916870076402
-0.10030225460788188
0.014293208334468111
0.14003806868691374
0.3081985341846212
-0.2700414823702224
0.09713873035862154
0.6181305000006413
0.5378243266618723
2.803531314432701
1.9881678087922587
0.38733106160026337
0.427963070775901
0.47759789144544734
0.005126768454781494
0.3071355329445517
-0.02420625337317166
-0.2826947486362807
0.5891654730410585
0.5125011263377086
0.07593269554713826
-0.10263115878706128
-0.1041326132101573
-0.10028548311847787
-0.1032733368416401
-0.09257681573205716
-0.08941172593561598
-0.07124385768987054
-0.04124620337866846
0.3095387239734551
0.034339587240879973
1.265000033979705
1.4601723705996565
0.26581822957788515
0.09052178127190341
0.18065720883238187
0.4149066939441243
-0.1049434274231335
-0.10394786419411163
-0.10974353366372647
-0.10413170969327123
-0.11153842909992218
-0.09761341545201961
-0.09855707847748474
-0.02784280221863107
0.14424242195558015
5.3209645519882445
5.209040813065408
-0.012018086950203604
2.0939223965103815
0.4859383276899144
-0.10195948473888028
-0.1024307875602242
-0.10067268166218078
0.4011794420141343
-0.09917379337309284
-0.10201901672791754
-0.10032963207152756
-0.0952614467731153
-0.09067123279344072
-0.09423022772164125
-0.0860884204461084
-0.07897780648800098
-0.06673922525238596
-0.06471589482689713
-0.041708150446677576
0.011506851777243964
0.48729368856338984
0.06081788344345051
0.16304626352365537
0.24361390854308806
-0.06926999256814383
0.22293720225657537
0.06965098295686613