# vtk DataFile Version 1.0
2D Simulation C++
ASCII
DATASET UNSTRUCTURED_GRID
FIELD FieldData 1
NODES 1 2 int
348 601

POINTS 348 double
0.0 0.5 0.0
0.0 1.0 0.0
2.0 1.0 0.0
2.0 0.5 0.0
0.0 0.528801679611206 0.0
0.0 0.564507782459259 0.0
0.0 0.6110168099403381 0.0
0.0 0.6721802353858948 0.0
0.0 0.7528436183929443 0.0
0.0 0.8593378663063049 0.0
0.16666941344738007 1.0 0.0
0.3333356976509094 1.0 0.0
0.5000020265579224 1.0 0.0
0.6666678786277771 1.0 0.0
0.8333337306976318 1.0 0.0
1.0 1.0 0.0
1.1666662693023682 1.0 0.0
1.3333321809768677 1.0 0.0
1.4999979734420776 1.0 0.0
1.6666642427444458 1.0 0.0
1.8333306312561035 1.0 0.0
2.0 0.8593378663063049 0.0
2.0 0.7528436183929443 0.0
2.0 0.6721802353858948 0.0
2.0 0.6110168099403381 0.0
2.0 0.564507782459259 0.0
2.0 0.528801679611206 0.0
0.029850948601961136 0.5 0.0
0.05970168858766556 0.5 0.0
0.08955242484807968 0.5 0.0
0.1194031685590744 0.5 0.0
0.14925390481948853 0.5 0.0
0.17910465598106384 0.5 0.0
0.20895539224147797 0.5 0.0
0.2388061285018921 0.5 0.0
0.2686568796634674 0.5 0.0
0.29850760102272034 0.5 0.0
0.32835835218429565 0.5 0.0
0.35820910334587097 0.5 0.0
0.3880598247051239 0.5 0.0
0.4179105758666992 0.5 0.0
0.44776129722595215 0.5 0.0
0.47761204838752747 0.5 0.0
0.5074627995491028 0.5 0.0
0.5373135209083557 0.5 0.0
0.5671642422676086 0.5 0.0
0.5970150232315063 0.5 0.0
0.6268657445907593 0.5 0.0
0.6567164659500122 0.5 0.0
0.6865672469139099 0.5 0.0
0.7164179682731628 0.5 0.0
0.7462686896324158 0.5 0.0
0.7761194705963135 0.5 0.0
0.8059701919555664 0.5 0.0
0.8358209133148193 0.5 0.0
0.865671694278717 0.5 0.0
0.89552241563797 0.5 0.0
0.9253731369972229 0.5 0.0
0.9552239179611206 0.5 0.0
0.9850746393203735 0.5 0.0
1.0149253606796265 0.5 0.0
1.0447760820388794 0.5 0.0
1.0746268033981323 0.5 0.0
1.1044776439666748 0.5 0.0
1.1343283653259277 0.5 0.0
1.1641790866851807 0.5 0.0
1.1940298080444336 0.5 0.0
1.2238805294036865 0.5 0.0
1.2537312507629395 0.5 0.0
1.2835819721221924 0.5 0.0
1.3134328126907349 0.5 0.0
1.3432835340499878 0.5 0.0
1.3731342554092407 0.5 0.0
1.4029849767684937 0.5 0.0
1.4328356981277466 0.5 0.0
1.4626864194869995 0.5 0.0
1.492537260055542 0.5 0.0
1.522387981414795 0.5 0.0
1.5522387027740479 0.5 0.0
1.5820894241333008 0.5 0.0
1.6119401454925537 0.5 0.0
1.6417908668518066 0.5 0.0
1.6716417074203491 0.5 0.0
1.701492428779602 0.5 0.0
1.731343150138855 0.5 0.0
1.761193871498108 0.5 0.0
1.7910445928573608 0.5 0.0
1.8208953142166138 0.5 0.0
1.8507460355758667 0.5 0.0
1.8805968761444092 0.5 0.0
1.910447597503662 0.5 0.0
1.940298318862915 0.5 0.0
1.970149040222168 0.5 0.0
1.7358819246292114 0.7499510645866394 0.0
0.2656642198562622 0.7486277222633362 0.0
0.49981194734573364 0.737183690071106 0.0
0.74151611328125 0.7359843254089355 0.0
0.9774143695831299 0.7371892929077148 0.0
1.201690912246704 0.7367381453514099 0.0
1.447761058807373 0.7383390665054321 0.0
1.8591958284378052 0.6421071290969849 0.0
0.14080412685871124 0.6421071290969849 0.0
1.588537573814392 0.6783608794212341 0.0
0.2553686201572418 0.6221352219581604 0.0
1.7466964721679688 0.6278358101844788 0.0
0.38199201226234436 0.6273008584976196 0.0
0.5013589859008789 0.6272794008255005 0.0
0.6207823157310486 0.6272526383399963 0.0
0.7401852607727051 0.627252459526062 0.0
0.8595882654190063 0.6272523999214172 0.0
0.9701492786407471 0.6212864518165588 0.0
1.0807102918624878 0.6272523999214172 0.0
1.2001131772994995 0.6272523999214172 0.0
1.3195161819458008 0.6272523999214172 0.0
1.4488563537597656 0.6310953497886658 0.0
1.9247323274612427 0.5706554055213928 0.0
0.07526770234107971 0.5706554055213928 0.0
1.5377081632614136 0.5910930037498474 0.0
1.6566967964172363 0.5934624075889587 0.0
1.8074009418487549 0.5708622932434082 0.0
0.1940300166606903 0.5737577676773071 0.0
1.0286364555358887 0.5665481686592102 0.0
1.14803946018219 0.5665481686592102 0.0
0.9116620421409607 0.5665481686592102 0.0
1.2674424648284912 0.5665481686592102 0.0
0.7922590970993042 0.5665481686592102 0.0
0.6728560328483582 0.5665482878684998 0.0
0.5534531474113464 0.5665481686592102 0.0
1.3892061710357666 0.5727682709693909 0.0
0.43402159214019775 0.5665869116783142 0.0
0.3146642744541168 0.5667200088500977 0.0
1.8656742572784424 0.5607567429542542 0.0
0.1343258023262024 0.5607567429542542 0.0
1.5970147848129272 0.5642029047012329 0.0
1.8783670663833618 0.7786769866943359 0.0
0.12163297086954117 0.7786769866943359 0.0
1.7164177894592285 0.562579333782196 0.0
1.4776118993759155 0.5620538592338562 0.0
1.5857784748077393 0.867691159248352 0.0
0.25373148918151855 0.5588531494140625 0.0
0.9701492786407471 0.5582930445671082 0.0
1.0895521640777588 0.5582930445671082 0.0
0.8507462739944458 0.5582930445671082 0.0
1.20895516872406 0.5582930445671082 0.0
0.7313433289527893 0.5582930445671082 0.0
1.3283581733703613 0.5582930445671082 0.0
0.6119403839111328 0.5582930445671082 0.0
0.49253740906715393 0.5582930445671082 0.0
0.37313446402549744 0.5582956075668335 0.0
0.36864349246025085 0.7376502752304077 0.0
0.602456271648407 0.7355343103408813 0.0
0.8441241383552551 0.7366551756858826 0.0
1.3355978727340698 0.7366551160812378 0.0
1.0895521640777588 0.7378703355789185 0.0
0.07051979005336761 0.6486480832099915 0.0
1.9294801950454712 0.6486480832099915 0.0
1.5086064338684082 0.6743985414505005 0.0
1.6785967350006104 0.6649783849716187 0.0
1.9543375968933105 0.5452249050140381 0.0
0.04566239193081856 0.5452249050140381 0.0
1.6567095518112183 0.5496091842651367 0.0
1.53738272190094 0.5491842031478882 0.0
0.91306072473526 0.8965699672698975 0.0
1.7782752513885498 0.5446287989616394 0.0
1.4163299798965454 0.5447981357574463 0.0
0.4287482798099518 0.8945969939231873 0.0
1.2610714435577393 0.8950135707855225 0.0
0.4313095211982727 0.6832783222198486 0.0
0.31561949849128723 0.6858259439468384 0.0
1.029850721359253 0.6781684160232544 0.0
0.9082015752792358 0.6848641633987427 0.0
1.1492537260055542 0.6781684160232544 0.0
0.7886138558387756 0.678956151008606 0.0
1.2709345817565918 0.684736430644989 0.0
0.6685023903846741 0.6868807673454285 0.0
1.4007169008255005 0.6702371835708618 0.0
0.5483440160751343 0.6792802214622498 0.0
0.19808045029640198 0.6887137293815613 0.0
1.797759771347046 0.6853783130645752 0.0
0.6811949610710144 0.8757594227790833 0.0
1.0189321041107178 0.8474968671798706 0.0
0.7922950983047485 0.8446238040924072 0.0
1.3765455484390259 0.8590760827064514 0.0
1.1571698188781738 0.8478953838348389 0.0
1.8954496383666992 0.5359624624252319 0.0
1.8360060453414917 0.5359931588172913 0.0
0.10455036163330078 0.5359624624252319 0.0
0.16417928040027618 0.5353734493255615 0.0
0.5530290007591248 0.8422092199325562 0.0
0.2832632064819336 0.5367912650108337 0.0
0.22469767928123474 0.5394234657287598 0.0
0.9405550956726074 0.5357381105422974 0.0
0.9997434020042419 0.5357381105422974 0.0
1.0600273609161377 0.5365630984306335 0.0
1.1191463470458984 0.5357381105422974 0.0
0.8802711367607117 0.5365630984306335 0.0
0.8211521506309509 0.5357381105422974 0.0
1.2385493516921997 0.5357381105422974 0.0
1.179430365562439 0.5365630984306335 0.0
0.7608681321144104 0.5365630984306335 0.0
0.7017492055892944 0.5357381105422974 0.0
1.2988333702087402 0.5365630984306335 0.0
1.357560396194458 0.5390686392784119 0.0
0.5823462605476379 0.5357381105422974 0.0
0.6414651870727539 0.5365630984306335 0.0
0.5220622420310974 0.5365630984306335 0.0
0.4629422128200531 0.535739541053772 0.0
0.3435409665107727 0.5357455015182495 0.0
0.4026572108268738 0.5365669131278992 0.0
0.21006634831428528 0.8590372204780579 0.0
1.7943172454833984 0.8627070188522339 0.0
0.06134982034564018 0.7191494703292847 0.0
1.938650131225586 0.7191494703292847 0.0
1.634666085243225 0.7584379315376282 0.0
0.3355695903301239 0.8387951850891113 0.0
1.537941336631775 0.7633647918701172 0.0
1.9670078754425049 0.574067234992981 0.0
0.032992132008075714 0.574067234992981 0.0
1.6862140893936157 0.5314788222312927 0.0
1.6272135972976685 0.5317342281341553 0.0
1.5077245235443115 0.5309156775474548 0.0
1.5668202638626099 0.5316618084907532 0.0
1.7466963529586792 0.5298213958740234 0.0
1.4473658800125122 0.5297333002090454 0.0
1.804386019706726 0.5275400876998901 0.0
1.9283779859542847 0.5282225012779236 0.0
1.8656879663467407 0.5267112255096436 0.0
0.13432854413986206 0.5271331071853638 0.0
0.07162196189165115 0.5282225012779236 0.0
0.25373148918151855 0.527070939540863 0.0
0.19419340789318085 0.5297109484672546 0.0
0.31349387764930725 0.5272363424301147 0.0
0.37313446402549744 0.5270199179649353 0.0
0.4329495429992676 0.5274069309234619 0.0
0.49253740906715393 0.5270196795463562 0.0
0.5523557066917419 0.5274024605751038 0.0
1.3898069858551025 0.5277745127677917 0.0
1.3283581733703613 0.5270196795463562 0.0
0.6119403839111328 0.5270196795463562 0.0
1.2685397863388062 0.5274024605751038 0.0
0.6717586517333984 0.5274024605751038 0.0
0.7313433289527893 0.5270196795463562 0.0
1.20895516872406 0.5270196795463562 0.0
0.7911616563796997 0.5274024605751038 0.0
0.8507462739944458 0.5270196795463562 0.0
1.1491369009017944 0.5274024605751038 0.0
1.0895521640777588 0.5270196795463562 0.0
0.9105646014213562 0.5274024605751038 0.0
0.9701492786407471 0.5270196795463562 0.0
1.0297338962554932 0.5274024605751038 0.0
1.4776118993759155 0.5259945392608643 0.0
1.597015619277954 0.5255197882652283 0.0
1.7164177894592285 0.525999903678894 0.0
1.6834615468978882 0.8477573990821838 0.0
1.5822722911834717 0.6086509227752686 0.0
0.20459823310375214 0.6270732283592224 0.0
1.8037469387054443 0.6209055185317993 0.0
0.09990309923887253 0.8589919805526733 0.0
1.9000968933105469 0.8589919805526733 0.0
1.75603187084198 0.5789161324501038 0.0
0.10896337777376175 0.5982794761657715 0.0
1.8910366296768188 0.5982794761657715 0.0
1.4950518608093262 0.605266273021698 0.0
1.7049394845962524 0.6007562279701233 0.0
1.4387125968933105 0.5775743722915649 0.0
1.489302158355713 0.851039469242096 0.0
0.15732239186763763 0.5961292386054993 0.0
1.8436260223388672 0.5944437384605408 0.0
0.4399496018886566 0.6259797215461731 0.0
1.022565245628357 0.6257523894309998 0.0
[...]
POINT_DATA 348
SCALARS Psi double
LOOKUP_TABLE default
1.087898474505914
1.0
1.0
1.0766684692566448
1.08778800623087
1.0875451104726908
1.0891468084440816
1.0938728055774976
1.1033510760285985
1.141821749179054
1.0
1.0
1.0
1.0
1.0
1.0
1.0
1.0
1.0
1.0
1.0
1.1342685463948645
1.0942751242409665
1.0844750354831836
1.0798819113724085
1.0777145537983468
1.0768590541920287
1.0879812890902016
1.0867118737203618
1.0848223047272967
1.082420799961273
1.0794798105856336
1.0760237479536139
1.0721218737328302
1.067867293876562
1.0633834607860346
1.058758476421604
1.054092062072815
1.0494630468909516
1.0449565223378579
1.0406243933955608
1.0364944248356205
1.032599619288089
1.0289672844690534
1.0256109400015714
1.022518384511845
1.0196944968263189
1.017138190673534
1.014844862038207
1.0127905844151834
1.0109687791865176
1.0093691715629307
1.0079826246132633
1.0067887562643596
1.005780375975828
1.004949402854884
1.0042890027962357
1.0037866646418063
1.0034382993190742
1.003241199565993
1.0031934442639965
1.0032914481784252
1.0035346311375246
1.0039285742433666
1.0044762170590054
1.0051807818982672
1.0060462357461974
1.0070859529070173
1.0083062724644163
1.0097144700031604
1.0113162605269246
1.0131345528458278
1.0151740580343647
1.0174309700493582
1.0199346785756103
1.0226764930901466
1.0256555034855517
1.0288722148436156
1.032324068251576
1.0359903891850175
1.0398395377927843
1.0438338440270751
1.0479255363452387
1.0520543032562293
1.0561439082955972
1.0601072579917996
1.0638381740187957
1.0672402127748213
1.07020475871006
1.0726291927367775
1.0744756476863018
1.0757491274576898
1.0764613444357816
1.0467867111097482
1.0518854974995275
1.0201199545674648
1.0058086488405227
1.0016730890732286
1.0036439487144633
1.0139159671409272
1.073368257084723
1.0821127466395304
1.0311074484642155
1.0635343109924489
1.056689605790545
1.0425530035947268
1.0268241535057518
1.015624362388413
1.0084497788026148
1.0043633587493603
1.002845786771679
1.0030421303403565
1.0054010944039986
1.0102988518924447
1.0190457071421437
1.0762815970208397
1.0856765450456358
1.0292513434324877
1.0445295116975004
1.065908391886436
1.074034191606711
1.0030690600136953
1.004581156625479
1.003818930540979
1.0086117114269142
1.00703156462247
1.0132384594371555
1.0232041804416885
1.0157540903958469
1.0374860201990426
1.0554784179709205
1.0719808302860108
1.0811616401264958
1.0372069616075068
1.0782438794756346
1.0863580194891436
1.053672817276496
1.0235734735172632
1.0130768691662626
1.0652546100949436
1.0031970524730107
1.003579888193562
1.0051657431279066
1.0063427129972844
1.0098477968555433
1.011873277050543
1.0179114426599598
1.0300947466121193
1.0464794892479843
1.0356947694515553
1.0123546184430485
1.0031387426964227
1.0079927420496264
1.0019375177825462
1.0902638557374251
1.0807843178728147
1.022636796751748
1.0445797931518361
1.0766486529924726
1.0869297742305086
1.045499356402818
1.030180404416082
1.0004324779457137
1.0622233994945993
1.0182593122279562
1.010523864373766
1.0014801910947335
1.032130051841005
1.049402649176791
1.0022866924228688
1.0028325832447504
1.0035487593323995
1.005618481713378
1.0068375194662293
1.0105844966847397
1.0140169693415855
1.0195846246205782
1.0716959174673075
1.0635402041394348
1.003369088874758
1.0005515289266007
1.0019091530081177
1.00447379883179
1.0011770794818937
1.0738826786534983
1.068932668685393
1.0837058532098618
1.077857778864786
1.0080518454116583
1.0609556648015945
1.0698224662033118
1.003544909552875
1.0031568981133796
1.0033514355710698
1.0041283491621849
1.0045480023594837
1.006184409192769
1.007584955933142
1.0055370177879084
1.0085721333130833
1.011722071882375
1.0104033157148784
1.0139270178227908
1.0208731770420236
1.0158334216377196
1.0270743050415614
1.0342521732263148
1.051505429193879
1.042562082357396
1.039556706561152
1.036211233941122
1.0980435920039104
1.088474765997733
1.0302226293673076
1.0266177484462171
1.0193764487887325
1.0777981806244417
1.086996083617922
1.0498144934644744
1.0417081050560841
1.0271153359102418
1.0339262736258126
1.0581499446394125
1.0211277923836939
1.0654241818171075
1.0754785720491222
1.0715896555247892
1.0810291667556995
1.0859076136182237
1.0655604214028773
1.0740717861640965
1.0562842958538745
1.0470323712778797
1.038362659914783
1.030604475212454
1.023898083915258
1.016320485811621
1.0121235364305807
1.0182792587005467
1.0089275203721755
1.0137006778721815
1.0100775781267788
1.0065003902887586
1.0073102832350633
1.0053049710572726
1.0047733073656602
1.0036843055083027
1.0039874088494376
1.0032948803011406
1.003199689931518
1.0240373575828983
1.0377827111537745
1.0540276655971696
1.0247321279254586
1.0340237284795002
1.072097795405374
1.0654174776673149
1.076679888502808
1.0694555700113675
1.0590427058656986
1.0841870038584414
1.0751055971259484
1.0242340643880583
1.0512398238739726
1.0196470454202282
1.0091319940554673
1.0790605294258162
1.0704032401573658
1.0344440063442923
1.0027017717232865
1.0033116066653593
1.003983336408573
1.0061442472404076
1.007590352498455
1.0117379897082397
1.0131967721968613
1.020894821976338
1.0530712580073474
1.0269044500744011
1.0769456125866201
1.0853521982253382
1.0490327200726113
1.0329780828114208
1.0415769128202002
1.0531510677116234
1.0023830257252753
1.0026693188057259
1.003941891133646
1.0050219755394452
1.0079147626328078
1.0097441058479235
1.014474178615144
1.0255108295520199
1.0411378679621506
1.1079720339972976
1.099286006036078
1.076666239548349
1.0879553704915874
1.0607630654084084
1.0029734870243014
1.0032515757368834
1.0031706622359349
1.0612209313493566
1.0037527086784594
1.004377022242903
1.0056003462581131
1.0053642798870386
1.0069008653554907
1.008344669318407
1.0107080771129553
1.0101583380856982
1.012799059173113
1.0154620518406432
1.0192794234283042
1.0265465388355384
1.068074896958591
1.0320716499156872
1.0420100803880274
1.048885479019183
1.017436272664006
1.0457873258268322
1.030481826843184
1.0386471657761402
1.001457016575439
1.0217583110289143
1.0389659103822069
1.083777792792026
1.074404664261901
1.0002569121773364
1.0282062276242905
1.069242865832642
1.0781093475385533
1.0039401956853689
1.087521509319071
1.0771331067684866
1.0872136409914432
1.0783251134840635
1.0690638753648456
1.0624278431759813
1.0620060165734517
1.0185975169905441
1.0010538007721417
1.016345308195825
1.0065916817527114
1.0761908357874155
1.087210488862863
1.0528187222834888
1.0469710938931724

SCALARS Omega double
LOOKUP_TABLE default
4.100276591394347
-10.327730795436139
-14.26864956339783
0.1321785705715034
4.492515426469196
-2.683794553308187
-4.473557660634814
3.542292223091502
1.031478153519613
20.842645460337263
-8.188675201154105
-0.40947252232512016
-0.8985275653939213
-0.23421395942757647
-0.11369097867134924
-0.03061211119019999
-0.11116900932419446
-0.18643504131191674
-0.6569892800266083
-0.6110339256923674
-6.11574538505094
17.94367058510944
3.512463678239301
-1.0379081270119774
0.1453482836501689
0.03351225769626921
-0.3220314024803178
2.111361729825261
1.0918367791701136
0.7143021740895191
0.5849518485729939
0.5327239424929399
0.5070780229780801
0.4781901953453206
0.44153688695107257
0.3974117805670777
0.3477326855174071
0.2962463956645168
0.24497892024275242
0.196183133491968
0.15080900292460378
0.10952048225669724
0.07261347350639123
0.04033345357912312
0.012569702993084117
-0.01115535132958676
-0.031081819755358172
-0.04752459062711731
-0.060811397862212666
-0.07154132509424002
-0.08001355261642726
-0.08658310712087534
-0.09151389784999721
-0.09520530149861962
-0.09785149337483975
-0.0996730032519979
-0.10081314043691621
-0.10146383312964126
-0.10170958672120417
-0.1016268687743848
-0.10124796093658063
-0.1005929094886355
-0.09964829274356919
-0.0983430316658499
-0.09661228012447981
-0.09434272394968717
-0.09142625853745358
-0.08763222668431475
-0.08279843107413394
-0.07668844523080524
-0.06909527064200166
-0.059547317291033845
-0.04780290324996651
-0.03366497388546123
-0.0164727517122052
0.003910499114040349
0.027743081704734322
0.05530912053746357
0.08677693338048247
0.12203690492205826
0.16057613136085558
0.20168960504349936
0.24401350578084655
0.2859350888697694
0.32478694600399555
0.3576013700932193
0.3795471549341158
0.3852480049244536
0.37065562196729196
0.33000239086062405
0.26103410294003987
0.165109193138686
0.06635078647452017
0.31510667870974857
0.33936277925755487
-0.11646412749212327
-0.13091185667443003
-0.10570544244129029
-0.11366535237418551
-0.12385496956469182
0.7178328075970152
0.844825062150458
0.04691930011487404
0.46988162820799395
0.40812474717938435
0.16694960755827978
0.002897547175420076
-0.07395212630509078
-0.10007944145245036
-0.10519634428525769
-0.10385548595556444
-0.1023078075808521
-0.09843631749301754
-0.08460653283898781
-0.04068562454058507
0.30650981069114497
0.09488991775551733
0.051862508429759736
0.21730105434220753
0.4399174100870455
0.5280590909252801
-0.10168073739804429
-0.09715105264443677
-0.10234065547100166
-0.08372762102511018
-0.09659159909592459
-0.0732044439568856
-0.011171932718896794
-0.048931336381647664
0.11627850663337057
0.32074728071658704
0.40938443047313233
0.4908519705420404
0.13352109534943538
2.2490601200616083
2.5274009286828467
0.3156010861577054
0.007244176733279331
-0.3187831354449039
0.4342894838820066
-0.10231092622108788
-0.09981692806405804
-0.10036161191589135
-0.09157790155478415
-0.08711259275203083
-0.06873062135341113
-0.04655457285695454
0.046334058929390645
0.21351020278403243
0.04064205045433177
-0.14344316639389534
-0.11680355787947155
-0.12342029435512686
-0.10619346693417986
0.9676272328609399
0.574782840196648
-0.03102886952373384
0.2379945714030118
0.14049951445156145
0.45038740922744225
0.22190937382065803
0.065236253536228
-0.09857906644497522
0.38752322420559526
-0.030069434434408186
-0.4188839881074009
-0.1508136577813934
0.03255470394298319
0.2753749214094939
-0.1046161632896993
-0.1080751848027898
-0.1048814913046703
-0.11268902260609322
-0.1049721396785225
-0.11310599821853898
-0.0819065312013174
-0.0732426340540404
0.8361155033640355
0.6923071888276668
-0.2008834015344663
-0.09796264604998696
-0.14249513301139033
-0.208913139984843
-0.11464430760700733
0.32160350023350215
0.39908267500541567
0.5432661528298899
0.5181516061358281
-0.3016400703848724
0.37625886709555184
0.46768784739582137
-0.10188407620136462
-0.1016707034968649
-0.1003842107955624
-0.09788440007489504
-0.1007293031461645
-0.09731626898274072
-0.0862062282972945
-0.09350530320949157
-0.09023276549149332
-0.07756313163718534
-0.07426981170368097
-0.05627397508185247
-0.024308275533486714
-0.05649859200342812
0.02302009819072119
0.08697762293821346
0.2689062158620092
0.17062922353079513
-0.619190929491775
-0.5147470841169395
2.329445225118817
1.977775432656215
-0.011509735355372395
-0.23816940700230302
-0.12062838988454122
0.16690677657368957
-1.0217322041324293
0.2655262803329063
0.18017280045771664
0.03920614717657826
0.10148348527305076
0.3466251469721789
-0.00856666896985323
0.3920916325696847
0.21860644186092398
0.36523518411934075
0.5338230402322235
0.7124939981818748
0.4234154728675258
0.4972714401489701
0.32227161888160344
0.21880357136844913
0.1275221873149821
0.05381235952116979
-0.0016606519172560328
-0.04142765044564392
-0.06554031119323238
-0.04122242055253483
-0.08056138243522784
-0.06760899316182543
-0.08431587013587474
-0.0900782084111238
-0.09403104486061843
-0.09919241075173783
-0.09582606824291075
-0.09921886260678732
-0.10139610467727232
-0.10184407580575215
-0.10108332295891444
0.013962250849888197
0.13979943912242054
0.307602526357141
-0.2638912731574043
0.09725913339109572
0.6218180596335107
0.533779865187108
2.903995377801656
2.155648207265839
0.38564602074547427
0.43159595953563623
0.4734073822377092
0.005161758004364478
0.30623706254322486
-0.024410384897524107
-0.2810106959150008
0.5921227818732078
0.5085895250222727
0.07552629316156799
-0.10322296887731507
-0.10472893921779808
-0.10082993819186764
-0.1038571831614108
-0.09299651549749516
-0.08998797085807073
-0.0714738515595713
-0.04182883895740943
0.3101615018917579
0.03413599037443046
1.2523254612617971
1.4785748227904958
0.265162100344722
0.09036934035610818
0.18033095470586338
0.4136173790002021
-0.10537196689889748
-0.10433475528592633
-0.1101642659622689
-0.1044455063240342
-0.11200116001573597
-0.09772746947777618
-0.09915262606974488
-0.028490043251694568
0.1442310633771128
5.598342302591964
5.403331021629075
-0.012855761299611797
2.097569030710356
0.4888528703124039
-0.1026592897309221
-0.10312383634480696
-0.10135194605798452
0.4019968996810249
-0.09983805538478864
-0.10270297647368355
-0.10100566888395542
-0.09587048404946956
-0.09124247914476567
-0.09487819303128382
-0.08672286982800854
-0.07944071603574417
-0.06713690872751682
-0.06531830849045243
-0.04228617850093225
0.01099942535693201
0.48867830817109253
0.06039491839182408
0.16287202191327374
0.24370900185568628
-0.06902117037217015
0.22262509022682672
0.06938332803353608
0.14914127614686146
-0.10985028243038675
-0.16829937846686627
0.15224910600442104
0.38217091777774465
0.37518986524027376
-0.08900149604139021
0.032410881777241746
0.44000536699583476
0.5321896093695994
-0.13409298090490746
0.4668976837178354
0.011219789281263456
-0.5101373601021465
0.34085160636954226
1.020318573090154
0.9271598518391029
0.37332386665033224
-0.026222501830744666
-0.1725691100219372
-0.05296720420535895
-0.16617295466227558
0.11856080318496638
1.2482118262420017
0.5729328676153882
-1.2167721124875155

SCALARS Vx_analytic double
LOOKUP_TABLE default
4.100276591394347
-10.327730795436139
-14.26864956339783
0.13210637964709435
4.492515426469196
-2.683794553308187
-4.473557660634814
3.542292223091502
1.031478153519613
20.842645460337263
-8.188675201154105
-0.40947252232512016
-0.8985275653939213
-0.23421395942757647
-0.11369097867134924
-0.03061211119019999
-0.11116900932419446
-0.18643504131191674
-0.6569892800266081
-0.6110339256923674
-6.11574538505094
17.94367058510944
3.5132646958976057
-1.0157705221644628
0.1475555398778109
0.03451969899771805
-0.32007619909061674
2.111361729825261
1.0918367791701136
0.7143021740895191
0.5849518485729939
0.5327239424929399
0.5070780229780801
0.4781901953453206
0.44153688695107257
0.3974117805670777
0.3477326855174071
0.2962463956645168
0.24497892024275242
0.196183133491968
0.15080900292460378
0.10952048225669724
0.07261347350639123
0.04033345357912312
0.012569702993084117
-0.01115535132958676
-0.031081819755358172
-0.04752459062711731
-0.060811397862212666
-0.07154132509424002
-0.08001355261642726
-0.08658310712087534
-0.09151389784999721
-0.09520530149861962
-0.09785149337483975
-0.0996730032519979
-0.10081314043691621
-0.10146383312964126
-0.10170958672120417
-0.1016268687743848
-0.10124782765055369
-0.10059294204195053
-0.09964845504938406
-0.09834350190110351
-0.09661312131879868
-0.09434451871860969
-0.09142861870458859
-0.08763597043769165
-0.08280334278891036
-0.07669661379637925
-0.06910496134825471
-0.05956144851390953
-0.04782298754005734
-0.03367246039641742
-0.016485391452376357
0.003888409509782657
0.027721518384719323
0.05529747411443674
0.08676827989983704
0.12202034388197783
0.16057453055741105
0.20170954643105904
0.2440664345033456
0.28600158380069457
0.3248965446908153
0.35771286937456465
0.37972785692927125
0.3856007159068855
0.37102831606717107
0.3304074131024446
0.2613683054364728
0.16535185060596308
0.06630766750236332
0.30728902821796855
0.3371706145209222
-0.11573714656013694
-0.13079943948013223
-0.10570535512391989
-0.11372780229949372
-0.12456353024138445
0.7269997387826065
0.8347617254270925
0.04600727050654137
0.46799101154746114
0.4105073469606361
0.1669214628909949
0.0031366688239008655
-0.07378379845270969
-0.10001567391903583
-0.10518127231499425
-0.10385296486822482
-0.10231052803077056
-0.09846832164149173
-0.08473012843988842
-0.041016717923836384
0.30863173663684257
0.10164156815099967
0.05153787112986891
0.21754434337180797
0.4422804079350796
0.5270414712543707
-0.10168036655234856
-0.09715932322660352
-0.102337284644119
-0.08377000668667749
-0.09657556248298599
-0.07315791420022265
-0.011102327663141093
-0.04907507932942411
0.1162527776560446
0.3202582298912135
0.41159595865404297
0.4921555331207829
0.1334067718158317
2.256243746621543
2.4658842148377023
0.31620104478258276
0.0070459417521436946
-0.3199528326109954
0.4335301034134658
-0.10230954769970473
-0.09981884026472371
-0.1003537180472775
-0.09159326976904665
-0.08708221543359983
-0.0687861153453065
-0.04648330343858161
0.0464111869469558
0.21338885459219806
0.04151052174497101
-0.1429973079278423
-0.11677288635864128
-0.12376119510986268
-0.10620445994409426
0.8926160215204993
0.5831067609988917
-0.0317827546946122
0.2379372067214076
0.1418866574598376
0.45922610610646314
0.2220384809808428
0.06507796699728674
-0.09857956794859628
0.38847507772030193
-0.030156942438429032
-0.4175139088450257
-0.15089691667410604
0.03283307489491064
0.27463727441334723
-0.10461649295415344
-0.10806434632249474
-0.10490610193157197
-0.11263371909575713
-0.1050894835365045
-0.11291175052287539
-0.082293006216606
-0.07287632478518949
0.8282370826628966
0.6979119990900687
-0.20066822435963644
-0.09797116703090197
-0.14243482955312903
-0.2098549195346997
-0.11468425977838509
0.32291998604929895
0.40046616035997656
0.5455847679290312
0.5182087427677008
-0.3007930965710689
0.37596233365092063
0.46729198944465344
-0.10188333045339365
-0.1016702073110333
-0.10038502890796712
-0.0978882385467585
-0.10072764797374305
-0.09731253721591555
-0.08622901541256746
-0.09351735548255381
-0.09022641066299047
-0.07755275575139525
-0.07432039420404501
-0.056350997444098605
-0.024297351235123322
-0.05648791947704662
0.023012124120600077
0.08694559797827271
0.26873183033778925
0.17053225418634013
-0.6002055555256617
-0.540400401820949
2.3324891610305643
1.995213323703292
-0.014257358255230721
-0.23526584133959846
-0.12196078555213397
0.1688958090964936
-1.006428528816584
0.2657657157797876
0.18013718698295758
0.03905086594865893
0.10135564260067706
0.34736219757454595
-0.008684319444190142
0.39328239635330864
0.2197150068119281
0.36633678585650536
0.5347506766808294
0.7167242441774128
0.4231117937816203
0.4970539901841404
0.3221079645654162
0.21875178329698136
0.12751921381714326
0.05384393201624005
-0.001632289420667998
-0.04151191155064549
-0.06558852477115262
-0.04119317859995977
-0.08058918605330995
-0.06759113277235164
-0.08430334731522207
-0.09009150162918717
-0.09402489191073411
-0.09918920923255048
-0.09583184572165232
-0.09922064608285236
-0.10139490965510622
-0.10184361020515365
-0.1010834154980491
0.013839356920077029
0.13970756573245638
0.30797848305194364
-0.26982869697738127
0.09687450540465908
0.6181302600909255
0.537727513152534
2.803641245253296
1.9883210013783084
0.38716987918869805
0.42802012396641276
0.47752159428394814
0.00478060287016495
0.3069585322808276
-0.024649601427366087
-0.28242466287453644
0.5891893005314669
0.5124021151992028
0.07569952319075537
-0.10322246035634135
-0.10472312727566031
-0.10084273201007725
-0.10382419512380882
-0.0930674318028876
-0.08988417115473217
-0.07166214313221399
-0.041609082753828894
0.30944238264524343
0.033955124038548744
1.265000153519142
1.4602339633011774
0.26559395215653003
0.09019050064836427
0.1803862359396278
0.4148559104648822
-0.10536896235448051
-0.10433930005250422
-0.11013665881849612
-0.10448760294828421
-0.11189194719586879
-0.09790551172983036
-0.09883423321629192
-0.02803120503626222
0.1441547257621683
5.3209994235239435
5.209113620693713
-0.012093327463550374
2.094004461101609
0.48593036170382736
-0.10265782145731471
-0.10312143453262675
-0.10135356154035978
0.4010911438352694
-0.09984342184098555
-0.10269515363958094
-0.10099102635381464
-0.09589104254706575
-0.09127527610625355
-0.09484443757977705
-0.08667060521092668
-0.07952305266772869
-0.06724861035058567
-0.06522696170436383
-0.042173116022293664
0.011130154359651895
0.48724962629615143
0.06049584216775161
0.16281780513829094
0.2434373959199341
-0.069480586676206
0.22266343541760392
0.0692583377022657