# vtk DataFile Version 1.0
2D Simulation C++
ASCII
DATASET UNSTRUCTURED_GRID
FIELD FieldData 1
NODES 1 2 int
348 601

POINTS 348 double
0.0 0.5 0.0
0.0 1.0 0.0
2.0 1.0 0.0
2.0 0.5 0.0
0.0 0.528801679611206 0.0
0.0 0.564507782459259 0.0
0.0 0.6110168099403381 0.0
0.0 0.6721802353858948 0.0
0.0 0.7528436183929443 0.0
0.0 0.8593378663063049 0.0
0.16666941344738007 1.0 0.0
0.3333356976509094 1.0 0.0
0.5000020265579224 1.0 0.0
0.6666678786277771 1.0 0.0
0.8333337306976318 1.0 0.0
1.0 1.0 0.0
1.1666662693023682 1.0 0.0
1.3333321809768677 1.0 0.0
1.4999979734420776 1.0 0.0
1.6666642427444458 1.0 0.0
1.8333306312561035 1.0 0.0
2.0 0.8593378663063049 0.0
2.0 0.7528436183929443 0.0
2.0 0.6721802353858948 0.0
2.0 0.6110168099403381 0.0
2.0 0.564507782459259 0.0
2.0 0.528801679611206 0.0
0.029850948601961136 0.5 0.0
0.05970168858766556 0.5 0.0
0.08955242484807968 0.5 0.0
0.1194031685590744 0.5 0.0
0.14925390481948853 0.5 0.0
0.17910465598106384 0.5 0.0
0.20895539224147797 0.5 0.0
0.2388061285018921 0.5 0.0
0.2686568796634674 0.5 0.0
0.29850760102272034 0.5 0.0
0.32835835218429565 0.5 0.0
0.35820910334587097 0.5 0.0
0.3880598247051239 0.5 0.0
0.4179105758666992 0.5 0.0
0.44776129722595215 0.5 0.0
0.47761204838752747 0.5 0.0
0.5074627995491028 0.5 0.0
0.5373135209083557 0.5 0.0
0.5671642422676086 0.5 0.0
0.5970150232315063 0.5 0.0
0.6268657445907593 0.5 0.0
0.6567164659500122 0.5 0.0
0.6865672469139099 0.5 0.0
0.7164179682731628 0.5 0.0
0.7462686896324158 0.5 0.0
0.7761194705963135 0.5 0.0
0.8059701919555664 0.5 0.0
0.8358209133148193 0.5 0.0
0.865671694278717 0.5 0.0
0.89552241563797 0.5 0.0
0.9253731369972229 0.5 0.0
0.9552239179611206 0.5 0.0
0.9850746393203735 0.5 0.0
1.0149253606796265 0.5 0.0
1.0447760820388794 0.5 0.0
1.0746268033981323 0.5 0.0
1.1044776439666748 0.5 0.0
1.1343283653259277 0.5 0.0
1.1641790866851807 0.5 0.0
1.1940298080444336 0.5 0.0
1.2238805294036865 0.5 0.0
1.2537312507629395 0.5 0.0
1.2835819721221924 0.5 0.0
1.3134328126907349 0.5 0.0
1.3432835340499878 0.5 0.0
1.3731342554092407 0.5 0.0
1.4029849767684937 0.5 0.0
1.4328356981277466 0.5 0.0
1.4626864194869995 0.5 0.0
1.492537260055542 0.5 0.0
1.522387981414795 0.5 0.0
1.5522387027740479 0.5 0.0
1.5820894241333008 0.5 0.0
1.6119401454925537 0.5 0.0
1.6417908668518066 0.5 0.0
1.6716417074203491 0.5 0.0
1.701492428779602 0.5 0.0
1.731343150138855 0.5 0.0
1.761193871498108 0.5 0.0
1.7910445928573608 0.5 0.0
1.8208953142166138 0.5 0.0
1.8507460355758667 0.5 0.0
1.8805968761444092 0.5 0.0
1.910447597503662 0.5 0.0
1.940298318862915 0.5 0.0
1.970149040222168 0.5 0.0
1.7358819246292114 0.7499510645866394 0.0
0.2656642198562622 0.7486277222633362 0.0
0.49981194734573364 0.737183690071106 0.0
0.74151611328125 0.7359843254089355 0.0
0.9774143695831299 0.7371892929077148 0.0
1.201690912246704 0.7367381453514099 0.0
1.447761058807373 0.7383390665054321 0.0
1.8591958284378052 0.6421071290969849 0.0
0.14080412685871124 0.6421071290969849 0.0
1.588537573814392 0.6783608794212341 0.0
0.2553686201572418 0.6221352219581604 0.0
1.7466964721679688 0.6278358101844788 0.0
0.38199201226234436 0.6273008584976196 0.0
0.5013589859008789 0.6272794008255005 0.0
0.6207823157310486 0.6272526383399963 0.0
0.7401852607727051 0.627252459526062 0.0
0.8595882654190063 0.6272523999214172 0.0
0.9701492786407471 0.6212864518165588 0.0
1.0807102918624878 0.6272523999214172 0.0
1.2001131772994995 0.6272523999214172 0.0
1.3195161819458008 0.6272523999214172 0.0
1.4488563537597656 0.6310953497886658 0.0
1.9247323274612427 0.5706554055213928 0.0
0.07526770234107971 0.5706554055213928 0.0
1.5377081632614136 0.5910930037498474 0.0
1.6566967964172363 0.5934624075889587 0.0
1.8074009418487549 0.5708622932434082 0.0
0.1940300166606903 0.5737577676773071 0.0
1.0286364555358887 0.5665481686592102 0.0
1.14803946018219 0.5665481686592102 0.0
0.9116620421409607 0.5665481686592102 0.0
1.2674424648284912 0.5665481686592102 0.0
0.7922590970993042 0.5665481686592102 0.0
0.6728560328483582 0.5665482878684998 0.0
0.5534531474113464 0.5665481686592102 0.0
1.3892061710357666 0.5727682709693909 0.0
0.43402159214019775 0.5665869116783142 0.0
0.3146642744541168 0.5667200088500977 0.0
1.8656742572784424 0.5607567429542542 0.0
0.1343258023262024 0.5607567429542542 0.0
1.5970147848129272 0.5642029047012329 0.0
1.8783670663833618 0.7786769866943359 0.0
0.12163297086954117 0.7786769866943359 0.0
1.7164177894592285 0.562579333782196 0.0
1.4776118993759155 0.5620538592338562 0.0
1.5857784748077393 0.867691159248352 0.0
0.25373148918151855 0.5588531494140625 0.0
0.9701492786407471 0.5582930445671082 0.0
1.0895521640777588 0.5582930445671082 0.0
0.8507462739944458 0.5582930445671082 0.0
1.20895516872406 0.5582930445671082 0.0
0.7313433289527893 0.5582930445671082 0.0
1.3283581733703613 0.5582930445671082 0.0
0.6119403839111328 0.5582930445671082 0.0
0.49253740906715393 0.5582930445671082 0.0
0.37313446402549744 0.5582956075668335 0.0
0.36864349246025085 0.7376502752304077 0.0
0.602456271648407 0.7355343103408813 0.0
0.8441241383552551 0.7366551756858826 0.0
1.3355978727340698 0.7366551160812378 0.0
1.0895521640777588 0.7378703355789185 0.0
0.07051979005336761 0.6486480832099915 0.0
1.9294801950454712 0.6486480832099915 0.0
1.5086064338684082 0.6743985414505005 0.0
1.6785967350006104 0.6649783849716187 0.0
1.9543375968933105 0.5452249050140381 0.0
0.04566239193081856 0.5452249050140381 0.0
1.6567095518112183 0.5496091842651367 0.0
1.53738272190094 0.5491842031478882 0.0
0.91306072473526 0.8965699672698975 0.0
1.7782752513885498 0.5446287989616394 0.0
1.4163299798965454 0.5447981357574463 0.0
0.4287482798099518 0.8945969939231873 0.0
1.2610714435577393 0.8950135707855225 0.0
0.4313095211982727 0.6832783222198486 0.0
0.31561949849128723 0.6858259439468384 0.0
1.029850721359253 0.6781684160232544 0.0
0.9082015752792358 0.6848641633987427 0.0
1.1492537260055542 0.6781684160232544 0.0
0.7886138558387756 0.678956151008606 0.0
1.2709345817565918 0.684736430644989 0.0
0.6685023903846741 0.6868807673454285 0.0
1.4007169008255005 0.6702371835708618 0.0
0.5483440160751343 0.6792802214622498 0.0
0.19808045029640198 0.6887137293815613 0.0
1.797759771347046 0.6853783130645752 0.0
0.6811949610710144 0.8757594227790833 0.0
1.0189321041107178 0.8474968671798706 0.0
0.7922950983047485 0.8446238040924072 0.0
1.3765455484390259 0.8590760827064514 0.0
1.1571698188781738 0.8478953838348389 0.0
1.8954496383666992 0.5359624624252319 0.0
1.8360060453414917 0.5359931588172913 0.0
0.10455036163330078 0.5359624624252319 0.0
0.16417928040027618 0.5353734493255615 0.0
0.5530290007591248 0.8422092199325562 0.0
0.2832632064819336 0.5367912650108337 0.0
0.22469767928123474 0.5394234657287598 0.0
0.9405550956726074 0.5357381105422974 0.0
0.9997434020042419 0.5357381105422974 0.0
1.0600273609161377 0.5365630984306335 0.0
1.1191463470458984 0.5357381105422974 0.0
0.8802711367607117 0.5365630984306335 0.0
0.8211521506309509 0.5357381105422974 0.0
1.2385493516921997 0.5357381105422974 0.0
1.179430365562439 0.5365630984306335 0.0
0.7608681321144104 0.5365630984306335 0.0
0.7017492055892944 0.5357381105422974 0.0
1.2988333702087402 0.5365630984306335 0.0
1.357560396194458 0.5390686392784119 0.0
0.5823462605476379 0.5357381105422974 0.0
0.6414651870727539 0.5365630984306335 0.0
0.5220622420310974 0.5365630984306335 0.0
0.4629422128200531 0.535739541053772 0.0
0.3435409665107727 0.5357455015182495 0.0
0.4026572108268738 0.5365669131278992 0.0
0.21006634831428528 0.8590372204780579 0.0
1.7943172454833984 0.8627070188522339 0.0
0.06134982034564018 0.7191494703292847 0.0
1.938650131225586 0.7191494703292847 0.0
1.634666085243225 0.7584379315376282 0.0
0.3355695903301239 0.8387951850891113 0.0
1.537941336631775 0.7633647918701172 0.0
1.9670078754425049 0.574067234992981 0.0
0.032992132008075714 0.574067234992981 0.0
1.6862140893936157 0.5314788222312927 0.0
1.6272135972976685 0.5317342281341553 0.0
1.5077245235443115 0.5309156775474548 0.0
1.5668202638626099 0.5316618084907532 0.0
1.7466963529586792 0.5298213958740234 0.0
1.4473658800125122 0.5297333002090454 0.0
1.804386019706726 0.5275400876998901 0.0
1.9283779859542847 0.5282225012779236 0.0
1.8656879663467407 0.5267112255096436 0.0
0.13432854413986206 0.5271331071853638 0.0
0.07162196189165115 0.5282225012779236 0.0
0.25373148918151855 0.527070939540863 0.0
0.19419340789318085 0.5297109484672546 0.0
0.31349387764930725 0.5272363424301147 0.0
0.37313446402549744 0.5270199179649353 0.0
0.4329495429992676 0.5274069309234619 0.0
0.49253740906715393 0.5270196795463562 0.0
0.5523557066917419 0.5274024605751038 0.0
1.3898069858551025 0.5277745127677917 0.0
1.3283581733703613 0.5270196795463562 0.0
0.6119403839111328 0.5270196795463562 0.0
1.2685397863388062 0.5274024605751038 0.0
0.6717586517333984 0.5274024605751038 0.0
0.7313433289527893 0.5270196795463562 0.0
1.20895516872406 0.5270196795463562 0.0
0.7911616563796997 0.5274024605751038 0.0
0.8507462739944458 0.5270196795463562 0.0
1.1491369009017944 0.5274024605751038 0.0
1.0895521640777588 0.5270196795463562 0.0
0.9105646014213562 0.5274024605751038 0.0
0.9701492786407471 0.5270196795463562 0.0
1.0297338962554932 0.5274024605751038 0.0
1.4776118993759155 0.5259945392608643 0.0
1.597015619277954 0.5255197882652283 0.0
1.7164177894592285 0.525999903678894 0.0
1.6834615468978882 0.8477573990821838 0.0
1.5822722911834717 0.6086509227752686 0.0
0.20459823310375214 0.6270732283592224 0.0
1.8037469387054443 0.6209055185317993 0.0
0.09990309923887253 0.8589919805526733 0.0
1.9000968933105469 0.8589919805526733 0.0
1.75603187084198 0.5789161324501038 0.0
0.10896337777376175 0.5982794761657715 0.0
1.8910366296768188 0.5982794761657715 0.0
1.4950518608093262 0.605266273021698 0.0
1.7049394845962524 0.6007562279701233 0.0
1.4387125968933105 0.5775743722915649 0.0
1.489302158355713 0.851039469242096 0.0
0.15732239186763763 0.5961292386054993 0.0
1.8436260223388672 0.5944437384605408 0.0
0.4399496018886566 0.6259797215461731 0.0
1.022565245628357 0.6257523894309998 0.0
[...]
POINT_DATA 348
SCALARS Psi double
LOOKUP_TABLE default
1.08789847450592
1.0
1.0
1.0766684692566373
1.0877880062308758
1.087545110472696
1.0891468084440856
1.0938728055775002
1.1033510760286003
1.1418217491790543
1.0
1.0
1.0
1.0
1.0
1.0
1.0
1.0
1.0
1.0
1.0
1.1342685463948636
1.0942751242409645
1.0844750354831798
1.0798819113724034
1.0777145537983406
1.0768590541920215
1.0879812890902074
1.0867118737203671
1.0848223047273013
1.0824207999612774
1.0794798105856378
1.0760237479536177
1.0721218737328335
1.0678672938765654
1.063383460786038
1.0587584764216071
1.0540920620728178
1.0494630468909543
1.0449565223378603
1.040624393395563
1.0364944248356225
1.0325996192880906
1.028967284469055
1.025610940001573
1.0225183845118466
1.0196944968263206
1.0171381906735357
1.0148448620382093
1.0127905844151863
1.0109687791865203
1.0093691715629334
1.007982624613266
1.0067887562643625
1.0057803759758304
1.0049494028548867
1.0042890027962383
1.003786664641809
1.0034382993190771
1.0032411995659962
1.0031934442639996
1.003291448178428
1.0035346311375273
1.0039285742433692
1.004476217059008
1.0051807818982699
1.0060462357462001
1.00708595290702
1.0083062724644187
1.0097144700031628
1.0113162605269272
1.0131345528458302
1.0151740580343667
1.0174309700493602
1.019934678575612
1.0226764930901482
1.0256555034855532
1.0288722148436165
1.0323240682515766
1.0359903891850177
1.0398395377927838
1.043833844027074
1.0479255363452367
1.0520543032562264
1.056143908295594
1.060107257991796
1.0638381740187917
1.0672402127748164
1.0702047587100543
1.0726291927367713
1.074475647686295
1.0757491274576825
1.076461344435774
1.046786711109747
1.0518854974995295
1.0201199545674664
1.0058086488405242
1.0016730890732304
1.003643948714465
1.0139159671409284
1.073368257084719
1.0821127466395333
1.0311074484642158
1.0635343109924518
1.0566896057905422
1.042553003594729
1.0268241535057538
1.0156243623884151
1.008449778802617
1.0043633587493626
1.0028457867716816
1.0030421303403592
1.0054010944040006
1.0102988518924467
1.019045707142145
1.0762815970208335
1.0856765450456405
1.0292513434324884
1.0445295116974989
1.0659083918864318
1.0740341916067146
1.0030690600136982
1.0045811566254816
1.0038189305409817
1.0086117114269166
1.0070315646224726
1.013238459437158
1.0232041804416903
1.0157540903958486
1.0374860201990448
1.0554784179709233
1.0719808302860052
1.0811616401264998
1.0372069616075064
1.078243879475633
1.086358019489145
1.0536728172764933
1.0235734735172648
1.0130768691662626
1.0652546100949467
1.0031970524730136
1.003579888193565
1.005165743127909
1.0063427129972868
1.0098477968555462
1.0118732770505454
1.0179114426599616
1.0300947466121213
1.0464794892479872
1.0356947694515573
1.01235461844305
1.0031387426964244
1.0079927420496282
1.001937517782548
1.0902638557374282
1.0807843178728107
1.022636796751749
1.0445797931518348
1.076648652992466
1.0869297742305142
1.0454993564028165
1.0301804044160827
1.0004324779457145
1.0622233994945955
1.0182593122279582
1.0105238643737666
1.0014801910947346
1.032130051841007
1.0494026491767934
1.002286692422871
1.0028325832447524
1.0035487593324017
1.00561848171338
1.0068375194662316
1.0105844966847417
1.0140169693415872
1.01958462462058
1.07169591746731
1.0635402041394324
1.0033690888747586
1.0005515289266018
1.0019091530081188
1.0044737988317909
1.001177079481895
1.0738826786534919
1.068932668685388
1.083705853209866
1.07785777886479
1.0080518454116592
1.0609556648015976
1.0698224662033153
1.003544909552878
1.0031568981133827
1.0033514355710726
1.0041283491621875
1.0045480023594862
1.0061844091927716
1.0075849559331445
1.0055370177879108
1.008572133313086
1.0117220718823778
1.010403315714881
1.0139270178227933
1.0208731770420252
1.0158334216377218
1.027074305041563
1.0342521732263166
1.051505429193882
1.0425620823573982
1.039556706561153
1.0362112339411214
1.0980435920039127
1.0884747659977303
1.0302226293673074
1.0266177484462182
1.0193764487887331
1.0777981806244357
1.086996083617927
1.049814493464472
1.0417081050560832
1.0271153359102432
1.0339262736258128
1.0581499446394091
1.0211277923836959
1.0654241818171033
1.0754785720491153
1.0715896555247835
1.0810291667557037
1.0859076136182289
1.0655604214028807
1.0740717861641
1.0562842958538776
1.0470323712778822
1.038362659914785
1.0306044752124557
1.0238980839152596
1.0163204858116233
1.0121235364305834
1.0182792587005485
1.0089275203721781
1.0137006778721842
1.010077578126782
1.0065003902887613
1.0073102832350662
1.0053049710572755
1.004773307365663
1.0036843055083056
1.0039874088494403
1.0032948803011437
1.0031996899315212
1.0240373575828998
1.0377827111537743
1.0540276655971665
1.0247321279254584
1.0340237284795
1.0720977954053772
1.0654174776673115
1.0766798885028086
1.0694555700113666
1.0590427058656955
1.0841870038584454
1.0751055971259431
1.0242340643880594
1.0512398238739704
1.01964704542023
1.009131994055468
1.0790605294258198
1.0704032401573613
1.0344440063442943
1.002701771723289
1.0033116066653616
1.0039833364085757
1.0061442472404099
1.0075903524984575
1.0117379897082421
1.013196772196863
1.02089482197634
1.0530712580073498
1.0269044500744025
1.0769456125866177
1.0853521982253407
1.049032720072609
1.032978082811421
1.041576912820199
1.0531510677116216
1.0023830257252775
1.002669318805728
1.003941891133648
1.0050219755394472
1.0079147626328098
1.0097441058479255
1.0144741786151459
1.0255108295520217
1.0411378679621528
1.1079720339972987
1.0992860060360767
1.0766662395483417
1.0879553704915932
1.0607630654084108
1.0029734870243041
1.003251575736886
1.0031706622359378
1.0612209313493595
1.0037527086784623
1.0043770222429054
1.0056003462581156
1.005364279887041
1.0069008653554932
1.0083446693184097
1.0107080771129577
1.0101583380857004
1.012799059173115
1.0154620518406452
1.019279423428306
1.02654653883554
1.068074896958594
1.0320716499156892
1.04201008038803
1.0488854790191857
1.0174362726640076
1.0457873258268304
1.0304818268431848
1.0386471657761396
1.0014570165754406
1.0217583110289157
1.038965910382206
1.08377779279203
1.0744046642618952
1.0002569121773368
1.028206227624291
1.0692428658326372
1.078109347538557
1.0039401956853704
1.0875215093190769
1.07713310676848
1.0872136409914477
1.0783251134840584
1.0690638753648478
1.0624278431759797
1.062006016573448
1.0185975169905461
1.0010538007721421
1.0163453081958267
1.0065916817527127
1.0761908357874082
1.0872104888628686
1.052818722283489
1.0469710938931722

SCALARS Omega double
LOOKUP_TABLE default
4.100276591395955
-10.327730795436153
-14.268649563397853
0.1321785705694397
4.492515426469678
-2.6837945533078287
-4.473557660634747
3.542292223091525
1.0314781535194215
20.842645460337277
-8.188675201154108
-0.4094725223251232
-0.8985275653939243
-0.2342139594275724
-0.11369097867135765
-0.03061211119018569
-0.11116900932420504
-0.18643504131187125
-0.6569892800265682
-0.6110339256923751
-6.115745385050972
17.943670585109476
3.512463678239384
-1.0379081270119246
0.145348283650278
0.0335122576955315
-0.32203140248076334
2.1113617298259344
1.0918367791704917
0.7143021740897684
0.584951848573164
0.5327239424930572
0.5070780229781621
0.4781901953453785
0.4415368869511137
0.397411780567107
0.3477326855174282
0.29624639566453215
0.2449789202427637
0.19618313349197639
0.15080900292461014
0.10952048225670219
0.07261347350639524
0.040333453579126474
0.01256970299308703
-0.011155351329584126
-0.03108181975535571
-0.04752459062711493
-0.06081139786221033
-0.07154132509423766
-0.08001355261642489
-0.08658310712087293
-0.09151389784999472
-0.09520530149861706
-0.09785149337483713
-0.0996730032519952
-0.10081314043691345
-0.10146383312963848
-0.10170958672120138
-0.10162686877438198
-0.10124796093657776
-0.10059290948863259
-0.09964829274356629
-0.09834303166584704
-0.09661228012447706
-0.09434272394968454
-0.09142625853745115
-0.08763222668431257
-0.08279843107413211
-0.07668844523080386
-0.06909527064200083
-0.05954731729103371
-0.04780290324996724
-0.03366497388546304
-0.016472751712208314
0.003910499114035607
0.027743081704727588
0.05530912053745437
0.08677693338047017
0.12203690492204212
0.1605761313608346
0.20168960504347244
0.2440135057808122
0.28593508886972563
0.3247869460039395
0.3576013700931476
0.3795471549340231
0.3852480049243323
0.3706556219671309
0.33000239086040367
0.2610341029397293
0.16510919313822475
0.06635078647369581
0.3151066787097408
0.3393627792575592
-0.11646412749211786
-0.13091185667442273
-0.10570544244128063
-0.1136653523741737
-0.12385496956468325
0.7178328075969422
0.8448250621505049
0.04691930011486838
0.46988162820801577
0.4081247471793426
0.16694960755828656
0.002897547175423743
-0.0739521263050875
-0.10007944145244671
-0.10519634428525351
-0.10385548595555996
-0.10230780758084708
-0.09843631749301264
-0.08460653283898431
-0.040685624540585275
0.3065098106909022
0.09488991775571233
0.051862508429751465
0.2173010543421824
0.4399174100869548
0.5280590909253362
-0.10168073739804083
-0.09715105264443344
-0.10234065547099848
-0.08372762102510785
-0.0965915990959217
-0.07320444395688301
-0.011171932718893912
-0.04893133638164793
0.11627850663337587
0.32074728071660297
0.4093844304729758
0.4908519705421563
0.13352109534941867
2.2490601200616087
2.5274009286828316
0.31560108615766025
0.007244176733274552
-0.31878313544488346
0.43428948388203775
-0.10231092622108467
-0.09981692806405468
-0.10036161191588837
-0.09157790155478128
-0.08711259275202816
-0.06873062135340999
-0.04655457285695194
0.0463340589293943
0.21351020278404154
0.0406420504543369
-0.1434431663938892
-0.11680355787946332
-0.12342029435511598
-0.10619346693416878
0.9676272328609945
0.5747828401965832
-0.03102886952373414
0.23799457140299338
0.1404995144511361
0.4503874092277797
0.2219093738206292
0.06523625353621806
-0.09857906644495715
0.38752322420551694
-0.030069434434410115
-0.4188839881073914
-0.1508136577813645
0.03255470394298771
0.27537492140950176
-0.1046161632896925
-0.10807518480278358
-0.10488149130466293
-0.11268902260608794
-0.1049721396785152
-0.1131059982185342
-0.08190653120131348
-0.07324263405403628
0.8361155033640503
0.6923071888276333
-0.2008834015344529
-0.09796264604996749
-0.14249513301137534
-0.20891313998481675
-0.11464430760698412
0.32160350023326295
0.3990826750052834
0.5432661528300776
0.5181516061359205
-0.3016400703848595
0.3762588670955759
0.4676878473958672
-0.10188407620136174
-0.10167070349686191
-0.10038421079555934
-0.09788440007489206
-0.10072930314616166
-0.09731626898273801
-0.08620622829729231
-0.09350530320948885
-0.09023276549149077
-0.0775631316371829
-0.07426981170367962
-0.056273975081852466
-0.024308275533484133
-0.0564985920034257
0.023020098190724328
0.08697762293821787
0.26890621586202196
0.17062922353080226
-0.6191909294917737
-0.5147470841169299
2.329445225118784
1.9777754326562198
-0.011509735355370913
-0.2381694070022969
-0.12062838988453324
0.16690677657334138
-1.021732204132172
0.2655262803328685
0.18017280045769332
0.03920614717657059
0.10148348527303704
0.3466251469721166
-0.008566668969856918
0.39209163256958274
0.2186064418605626
0.36523518411915995
0.5338230402323587
0.7124939981821673
0.42341547286755954
0.4972714401490367
0.32227161888162104
0.21880357136845865
0.12752218731498766
0.05381235952117344
-0.0016606519172532512
-0.04142765044564508
-0.06554031119323173
-0.04122242055253239
-0.08056138243522608
-0.06760899316182305
-0.08431587013587226
-0.09007820841112137
-0.09403104486061584
-0.0991924107517351
-0.09582606824290794
-0.09921886260678432
-0.10139610467726948
-0.10184407580574927
-0.10108332295891147
0.01396225084988267
0.13979943912240236
0.3076025263570922
-0.2638912731573928
0.09725913339108382
0.621818059633544
0.5337798651870425
2.903995377801648
2.1556482072658514
0.3856460207454159
0.4315959595357429
0.4734073822375698
0.00516175800436029
0.3062370625431894
-0.02441038489752623
-0.2810106959149786
0.592122781873277
0.5085895250221684
0.07552629316157267
-0.1032229688773103
-0.10472893921779373
-0.10082993819186267
-0.10385718316140694
-0.09299651549749087
-0.08998797085806734
-0.07147385155956906
-0.04182883895740614
0.3101615018917696
0.03413599037442347
1.2523254612617674
1.478574822790503
0.2651621003446877
0.09036934035609605
0.18033095470584115
0.4136173790001772
-0.1053719668988912
-0.10433475528591908
-0.11016426596226321
-0.10444550632402691
-0.1120011600157311
-0.09772746947777013
-0.09915262606974055
-0.028490043251690394
0.14423106337711883
5.598342302591912
5.403331021629102
-0.012855761300253699
2.097569030710898
0.48885287031241714
-0.1026592897309184
-0.10312383634480334
-0.1013519460579806
0.4019968996810469
-0.09983805538478478
-0.10270297647368015
-0.10100566888395215
-0.09587048404946587
-0.0912424791447624
-0.0948781930312808
-0.08672286982800567
-0.07944071603574185
-0.06713690872751549
-0.06531830849044964
-0.04228617850092942
0.01099942535693533
0.4886783081711272
0.06039491839182818
0.16287202191328057
0.24370900185569652
-0.06902117037216729
0.22262509022679666
0.0693833280335256
0.14914127614684597
-0.10985028243037448
-0.16829937846686002
0.15224910600440328
0.38217091777789614
0.3751898652400788
-0.08900149604136984
0.03241088177723586
0.44000536699571574
0.532189609369682
-0.13409298090489014
0.4668976837182337
0.011219789280729095
-0.5101373601020017
0.3408516063693784
1.0203185730901556
0.9271598518390917
0.3733238666502516
-0.026222501830747005
-0.17256911002192524
-0.05296720420535837
-0.16617295466226653
0.11856080318444709
1.248211826242429
0.5729328676153878
-1.216772112487503

SCALARS Vx_analytic double
LOOKUP_TABLE default
4.100276591395955
-10.327730795436153
-14.268649563397853
0.13210637964503055
4.492515426469678
-2.6837945533078287
-4.473557660634747
3.542292223091525
1.0314781535194215
20.842645460337277
-8.188675201154108
-0.4094725223251232
-0.8985275653939243
-0.2342139594275724
-0.11369097867135765
-0.03061211119018569
-0.11116900932420504
-0.18643504131187125
-0.656989280026568
-0.6110339256923751
-6.115745385050972
17.943670585109476
3.513264695897671
-1.0157705221644064
0.14755553987791892
0.03451969899698557
-0.32007619909105733
2.1113617298259344
1.0918367791704917
0.7143021740897684
0.584951848573164
0.5327239424930572
0.5070780229781621
0.4781901953453785
0.4415368869511137
0.397411780567107
0.3477326855174282
0.29624639566453215
0.2449789202427637
0.19618313349197639
0.15080900292461014
0.10952048225670219
0.07261347350639524
0.040333453579126474
0.01256970299308703
-0.011155351329584126
-0.03108181975535571
-0.04752459062711493
-0.06081139786221033
-0.07154132509423766
-0.08001355261642489
-0.08658310712087293
-0.09151389784999472
-0.09520530149861706
-0.09785149337483713
-0.0996730032519952
-0.10081314043691345
-0.10146383312963848
-0.10170958672120138
-0.10162686877438198
-0.10124782765055064
-0.10059294204194762
-0.09964845504938113
-0.09834350190110064
-0.09661312131879585
-0.09434451871860716
-0.09142861870458616
-0.08763597043768984
-0.08280334278890844
-0.07669661379637803
-0.06910496134825388
-0.05956144851390979
-0.0478229875400578
-0.033672460396419225
-0.016485391452379674
0.0038884095097779176
0.027721518384712776
0.0552974741144275
0.08676827989982502
0.12202034388196177
0.1605745305573906
0.20170954643103292
0.24406643450331206
0.2860015838006508
0.3248965446907593
0.3577128693744904
0.3797278569291784
0.3856007159067608
0.37102831606701014
0.3304074131022245
0.2613683054361626
0.1653518506055024
0.06630766750154067
0.307289028217961
0.33717061452092656
-0.11573714656013154
-0.13079943948012496
-0.10570535512391023
-0.1137278022994819
-0.1245635302413758
0.7269997387825287
0.8347617254271412
0.046007270506536004
0.467991011547483
0.41050734696059027
0.16692146289100168
0.0031366688239045917
-0.0737837984527065
-0.10001567391903222
-0.10518127231499004
-0.10385296486822032
-0.10231052803076553
-0.09846832164148676
-0.08473012843988505
-0.04101671792383647
0.3086317366366013
0.10164156815119724
0.05153787112986082
0.21754434337178308
0.4422804079349869
0.527041471254427
-0.10168036655234512
-0.0971593232266002
-0.10233728464411584
-0.08377000668667513
-0.0965755624829831
-0.07315791420022005
-0.011102327663138243
-0.049075079329424356
0.11625277765605
0.3202582298912295
0.41159595865388726
0.49215553312089944
0.13340677181581506
2.256243746621559
2.4658842148376876
0.3162010447825378
0.00704594175213897
-0.3199528326109751
0.4335301034134969
-0.1023095476997015
-0.09981884026472035
-0.1003537180472745
-0.09159326976904376
-0.0870822154335972
-0.06878611534530513
-0.046483303438579045
0.046411186946959455
0.2133888545922073
0.04151052174497595
-0.14299730792783613
-0.11677288635863305
-0.12376119510985173
-0.10620445994408319
0.8926160215205673
0.5831067609988306
-0.031782754694612274
0.2379372067213884
0.14188665745941215
0.4592261061068029
0.22203848098081408
0.06507796699727704
-0.09857956794857822
0.3884750777202238
-0.030156942438430947
-0.41751390884501616
-0.1508969166740774
0.03283307489491509
0.27463727441335506
-0.10461649295414664
-0.10806434632248854
-0.10490610193156459
-0.11263371909575186
-0.10508948353649741
-0.11291175052287061
-0.08229300621660196
-0.07287632478518538
0.8282370826629118
0.6979119990900325
-0.20066822435962303
-0.09797116703088256
-0.14243482955311404
-0.20985491953467342
-0.11468425977836198
0.32291998604906036
0.40046616035984456
0.5455847679292192
0.5182087427677933
-0.30079309657105596
0.37596233365094456
0.4672919894446993
-0.10188333045339075
-0.1016702073110303
-0.10038502890796405
-0.09788823854675549
-0.10072764797374019
-0.09731253721591286
-0.08622901541256527
-0.09351735548255108
-0.09022641066298792
-0.07755275575139281
-0.07432039420404367
-0.05635099744409859
-0.024297351235120744
-0.056487919477044214
0.023012124120603314
0.0869455979782772
0.268731830337802
0.17053225418634732
-0.6002055555256609
-0.5404004018209344
2.332489161030528
1.9952133237032972
-0.01425735825522912
-0.23526584133959239
-0.12196078555212568
0.16889580909614477
-1.0064285288163264
0.26576571577975144
0.1801371869829343
0.0390508659486513
0.10135564260066343
0.34736219757448705
-0.008684319444193794
0.39328239635320666
0.21971500681156803
0.36633678585632373
0.534750676680965
0.716724244177709
0.4231117937816539
0.49705399018420726
0.32210796456543367
0.21875178329699105
0.1275192138171489
0.05384393201624377
-0.0016322894206652172
-0.041511911550646506
-0.06558852477115219
-0.04119317859995733
-0.08058918605330796
-0.06759113277234927
-0.08430334731521957
-0.09009150162918474
-0.09402489191073153
-0.09918920923254775
-0.0958318457216495
-0.09922064608284936
-0.1013949096551034
-0.10184361020515076
-0.10108341549804614
0.013839356920071513
0.13970756573243825
0.3079784830518953
-0.2698286969773699
0.09687450540464734
0.6181302600909591
0.5377275131524688
2.803641245253286
1.9883210013783208
0.38716987918864076
0.42802012396652256
0.4775215942838151
0.004780602870160829
0.3069585322807923
-0.024649601427368037
-0.2824246628745143
0.5891893005315371
0.5124021151990985
0.07569952319075991
-0.10322246035633659
-0.10472312727565597
-0.10084273201007225
-0.10382419512380496
-0.09306743180288328
-0.08988417115472883
-0.07166214313221173
-0.0416090827538256
0.30944238264525514
0.03395512403854192
1.265000153519114
1.4602339633011856
0.2655939521564959
0.09019050064835192
0.18038623593960534
0.4148559104648559
-0.10536896235447409
-0.10433930005249697
-0.11013665881849044
-0.10448760294827693
-0.11189194719586391
-0.09790551172982427
-0.09883423321628765
-0.028031205036258097
0.14415472576217442
5.32099942352389
5.209113620693703
-0.012093327464191204
2.0940044611021547
0.48593036170384046
-0.10265782145731102
-0.10312143453262312
-0.10135356154035584
0.4010911438352913
-0.09984342184098169
-0.10269515363957755
-0.1009910263538114
-0.09589104254706182
-0.09127527610625036
-0.09484443757977404
-0.08667060521092385
-0.07952305266772633
-0.06724861035058452
-0.06522696170436106
-0.04217311602229075
0.011130154359655243
0.48724962629618607
0.06049584216775575
0.1628178051382976
0.24343739591994415
-0.069480586676203
0.22266343541757302
0.06925833770225523
0.14915758458659184