# vtk DataFile Version 1.0
2D Simulation C++
ASCII
DATASET UNSTRUCTURED_GRID
FIELD FieldData 1
NODES 1 2 int
348 601

POINTS 348 double
0.0 0.5 0.0
0.0 1.0 0.0
2.0 1.0 0.0
2.0 0.5 0.0
0.0 0.528801679611206 0.0
0.0 0.564507782459259 0.0
0.0 0.6110168099403381 0.0
0.0 0.6721802353858948 0.0
0.0 0.7528436183929443 0.0
0.0 0.8593378663063049 0.0
0.16666941344738007 1.0 0.0
0.3333356976509094 1.0 0.0
0.5000020265579224 1.0 0.0
0.6666678786277771 1.0 0.0
0.8333337306976318 1.0 0.0
1.0 1.0 0.0
1.1666662693023682 1.0 0.0
1.3333321809768677 1.0 0.0
1.4999979734420776 1.0 0.0
1.6666642427444458 1.0 0.0
1.8333306312561035 1.0 0.0
2.0 0.8593378663063049 0.0
2.0 0.7528436183929443 0.0
2.0 0.6721802353858948 0.0
2.0 0.6110168099403381 0.0
2.0 0.564507782459259 0.0
2.0 0.528801679611206 0.0
0.029850948601961136 0.5 0.0
0.05970168858766556 0.5 0.0
0.08955242484807968 0.5 0.0
0.1194031685590744 0.5 0.0
0.14925390481948853 0.5 0.0
0.17910465598106384 0.5 0.0
0.20895539224147797 0.5 0.0
0.2388061285018921 0.5 0.0
0.2686568796634674 0.5 0.0
0.29850760102272034 0.5 0.0
0.32835835218429565 0.5 0.0
0.35820910334587097 0.5 0.0
0.3880598247051239 0.5 0.0
0.4179105758666992 0.5 0.0
0.44776129722595215 0.5 0.0
0.47761204838752747 0.5 0.0
0.5074627995491028 0.5 0.0
0.5373135209083557 0.5 0.0
0.5671642422676086 0.5 0.0
0.5970150232315063 0.5 0.0
0.6268657445907593 0.5 0.0
0.6567164659500122 0.5 0.0
0.6865672469139099 0.5 0.0
0.7164179682731628 0.5 0.0
0.7462686896324158 0.5 0.0
0.7761194705963135 0.5 0.0
0.8059701919555664 0.5 0.0
0.8358209133148193 0.5 0.0
0.865671694278717 0.5 0.0
0.89552241563797 0.5 0.0
0.9253731369972229 0.5 0.0
0.9552239179611206 0.5 0.0
0.9850746393203735 0.5 0.0
1.0149253606796265 0.5 0.0
1.0447760820388794 0.5 0.0
1.0746268033981323 0.5 0.0
1.1044776439666748 0.5 0.0
1.1343283653259277 0.5 0.0
1.1641790866851807 0.5 0.0
1.1940298080444336 0.5 0.0
1.2238805294036865 0.5 0.0
1.2537312507629395 0.5 0.0
1.2835819721221924 0.5 0.0
1.3134328126907349 0.5 0.0
1.3432835340499878 0.5 0.0
1.3731342554092407 0.5 0.0
1.4029849767684937 0.5 0.0
1.4328356981277466 0.5 0.0
1.4626864194869995 0.5 0.0
1.492537260055542 0.5 0.0
1.522387981414795 0.5 0.0
1.5522387027740479 0.5 0.0
1.5820894241333008 0.5 0.0
1.6119401454925537 0.5 0.0
1.6417908668518066 0.5 0.0
1.6716417074203491 0.5 0.0
1.701492428779602 0.5 0.0
1.731343150138855 0.5 0.0
1.761193871498108 0.5 0.0
1.7910445928573608 0.5 0.0
1.8208953142166138 0.5 0.0
1.8507460355758667 0.5 0.0
1.8805968761444092 0.5 0.0
1.910447597503662 0.5 0.0
1.940298318862915 0.5 0.0
1.970149040222168 0.5 0.0
1.7358819246292114 0.7499510645866394 0.0
0.2656642198562622 0.7486277222633362 0.0
0.49981194734573364 0.737183690071106 0.0
0.74151611328125 0.7359843254089355 0.0
0.9774143695831299 0.7371892929077148 0.0
1.201690912246704 0.7367381453514099 0.0
1.447761058807373 0.7383390665054321 0.0
1.8591958284378052 0.6421071290969849 0.0
0.14080412685871124 0.6421071290969849 0.0
1.588537573814392 0.6783608794212341 0.0
0.2553686201572418 0.6221352219581604 0.0
1.7466964721679688 0.6278358101844788 0.0
0.38199201226234436 0.6273008584976196 0.0
0.5013589859008789 0.6272794008255005 0.0
0.6207823157310486 0.6272526383399963 0.0
0.7401852607727051 0.627252459526062 0.0
0.8595882654190063 0.6272523999214172 0.0
0.9701492786407471 0.6212864518165588 0.0
1.0807102918624878 0.6272523999214172 0.0
1.2001131772994995 0.6272523999214172 0.0
1.3195161819458008 0.6272523999214172 0.0
1.4488563537597656 0.6310953497886658 0.0
1.9247323274612427 0.5706554055213928 0.0
0.07526770234107971 0.5706554055213928 0.0
1.5377081632614136 0.5910930037498474 0.0
1.6566967964172363 0.5934624075889587 0.0
1.8074009418487549 0.5708622932434082 0.0
0.1940300166606903 0.5737577676773071 0.0
1.0286364555358887 0.5665481686592102 0.0
1.14803946018219 0.5665481686592102 0.0
0.9116620421409607 0.5665481686592102 0.0
1.2674424648284912 0.5665481686592102 0.0
0.7922590970993042 0.5665481686592102 0.0
0.6728560328483582 0.5665482878684998 0.0
0.5534531474113464 0.5665481686592102 0.0
1.3892061710357666 0.5727682709693909 0.0
0.43402159214019775 0.5665869116783142 0.0
0.3146642744541168 0.5667200088500977 0.0
1.8656742572784424 0.5607567429542542 0.0
0.1343258023262024 0.5607567429542542 0.0
1.5970147848129272 0.5642029047012329 0.0
1.8783670663833618 0.7786769866943359 0.0
0.12163297086954117 0.7786769866943359 0.0
1.7164177894592285 0.562579333782196 0.0
1.4776118993759155 0.5620538592338562 0.0
1.5857784748077393 0.867691159248352 0.0
0.25373148918151855 0.5588531494140625 0.0
0.9701492786407471 0.5582930445671082 0.0
1.0895521640777588 0.5582930445671082 0.0
0.8507462739944458 0.5582930445671082 0.0
1.20895516872406 0.5582930445671082 0.0
0.7313433289527893 0.5582930445671082 0.0
1.3283581733703613 0.5582930445671082 0.0
0.6119403839111328 0.5582930445671082 0.0
0.49253740906715393 0.5582930445671082 0.0
0.37313446402549744 0.5582956075668335 0.0
0.36864349246025085 0.7376502752304077 0.0
0.602456271648407 0.7355343103408813 0.0
0.8441241383552551 0.7366551756858826 0.0
1.3355978727340698 0.7366551160812378 0.0
1.0895521640777588 0.7378703355789185 0.0
0.07051979005336761 0.6486480832099915 0.0
1.9294801950454712 0.6486480832099915 0.0
1.5086064338684082 0.6743985414505005 0.0
1.6785967350006104 0.6649783849716187 0.0
1.9543375968933105 0.5452249050140381 0.0
0.04566239193081856 0.5452249050140381 0.0
1.6567095518112183 0.5496091842651367 0.0
1.53738272190094 0.5491842031478882 0.0
0.91306072473526 0.8965699672698975 0.0
1.7782752513885498 0.5446287989616394 0.0
1.4163299798965454 0.5447981357574463 0.0
0.4287482798099518 0.8945969939231873 0.0
1.2610714435577393 0.8950135707855225 0.0
0.4313095211982727 0.6832783222198486 0.0
0.31561949849128723 0.6858259439468384 0.0
1.029850721359253 0.6781684160232544 0.0
0.9082015752792358 0.6848641633987427 0.0
1.1492537260055542 0.6781684160232544 0.0
0.7886138558387756 0.678956151008606 0.0
1.2709345817565918 0.684736430644989 0.0
0.6685023903846741 0.6868807673454285 0.0
1.4007169008255005 0.6702371835708618 0.0
0.5483440160751343 0.6792802214622498 0.0
0.19808045029640198 0.6887137293815613 0.0
1.797759771347046 0.6853783130645752 0.0
0.6811949610710144 0.8757594227790833 0.0
1.0189321041107178 0.8474968671798706 0.0
0.7922950983047485 0.8446238040924072 0.0
1.3765455484390259 0.8590760827064514 0.0
1.1571698188781738 0.8478953838348389 0.0
1.8954496383666992 0.5359624624252319 0.0
1.8360060453414917 0.5359931588172913 0.0
0.10455036163330078 0.5359624624252319 0.0
0.16417928040027618 0.5353734493255615 0.0
0.5530290007591248 0.8422092199325562 0.0
0.2832632064819336 0.5367912650108337 0.0
0.22469767928123474 0.5394234657287598 0.0
0.9405550956726074 0.5357381105422974 0.0
0.9997434020042419 0.5357381105422974 0.0
1.0600273609161377 0.5365630984306335 0.0
1.1191463470458984 0.5357381105422974 0.0
0.8802711367607117 0.5365630984306335 0.0
0.8211521506309509 0.5357381105422974 0.0
1.2385493516921997 0.5357381105422974 0.0
1.179430365562439 0.5365630984306335 0.0
0.7608681321144104 0.5365630984306335 0.0
0.7017492055892944 0.5357381105422974 0.0
1.2988333702087402 0.5365630984306335 0.0
1.357560396194458 0.5390686392784119 0.0
0.5823462605476379 0.5357381105422974 0.0
0.6414651870727539 0.5365630984306335 0.0
0.5220622420310974 0.5365630984306335 0.0
0.4629422128200531 0.535739541053772 0.0
0.3435409665107727 0.5357455015182495 0.0
0.4026572108268738 0.5365669131278992 0.0
0.21006634831428528 0.8590372204780579 0.0
1.7943172454833984 0.8627070188522339 0.0
0.06134982034564018 0.7191494703292847 0.0
1.938650131225586 0.7191494703292847 0.0
1.634666085243225 0.7584379315376282 0.0
0.3355695903301239 0.8387951850891113 0.0
1.537941336631775 0.7633647918701172 0.0
1.9670078754425049 0.574067234992981 0.0
0.032992132008075714 0.574067234992981 0.0
1.6862140893936157 0.5314788222312927 0.0
1.6272135972976685 0.5317342281341553 0.0
1.5077245235443115 0.5309156775474548 0.0
1.5668202638626099 0.5316618084907532 0.0
1.7466963529586792 0.5298213958740234 0.0
1.4473658800125122 0.5297333002090454 0.0
1.804386019706726 0.5275400876998901 0.0
1.9283779859542847 0.5282225012779236 0.0
1.8656879663467407 0.5267112255096436 0.0
0.13432854413986206 0.5271331071853638 0.0
0.07162196189165115 0.5282225012779236 0.0
0.25373148918151855 0.527070939540863 0.0
0.19419340789318085 0.5297109484672546 0.0
0.31349387764930725 0.5272363424301147 0.0
0.37313446402549744 0.5270199179649353 0.0
0.4329495429992676 0.5274069309234619 0.0
0.49253740906715393 0.5270196795463562 0.0
0.5523557066917419 0.5274024605751038 0.0
1.3898069858551025 0.5277745127677917 0.0
1.3283581733703613 0.5270196795463562 0.0
0.6119403839111328 0.5270196795463562 0.0
1.2685397863388062 0.5274024605751038 0.0
0.6717586517333984 0.5274024605751038 0.0
0.7313433289527893 0.5270196795463562 0.0
1.20895516872406 0.5270196795463562 0.0
0.7911616563796997 0.5274024605751038 0.0
0.8507462739944458 0.5270196795463562 0.0
1.1491369009017944 0.5274024605751038 0.0
1.0895521640777588 0.5270196795463562 0.0
0.9105646014213562 0.5274024605751038 0.0
0.9701492786407471 0.5270196795463562 0.0
1.0297338962554932 0.5274024605751038 0.0
1.4776118993759155 0.5259945392608643 0.0
1.597015619277954 0.5255197882652283 0.0
1.7164177894592285 0.525999903678894 0.0
1.6834615468978882 0.8477573990821838 0.0
1.5822722911834717 0.6086509227752686 0.0
0.20459823310375214 0.6270732283592224 0.0
1.8037469387054443 0.6209055185317993 0.0
0.09990309923887253 0.8589919805526733 0.0
1.9000968933105469 0.8589919805526733 0.0
1.75603187084198 0.5789161324501038 0.0
0.10896337777376175 0.5982794761657715 0.0
1.8910366296768188 0.5982794761657715 0.0
1.4950518608093262 0.605266273021698 0.0
1.7049394845962524 0.6007562279701233 0.0
1.4387125968933105 0.5775743722915649 0.0
1.489302158355713 0.851039469242096 0.0
0.15732239186763763 0.5961292386054993 0.0
1.8436260223388672 0.5944437384605408 0.0
0.4399496018886566 0.6259797215461731 0.0
1.022565245628357 0.6257523894309998 0.0
[...]
POINT_DATA 348
SCALARS Psi double
LOOKUP_TABLE default
1.0878984757923644
1.0
1.0
1.0766684713949572
1.0877880075088509
1.0875451117187596
1.0891468096167314
1.0938728065951184
1.103351076768988
1.1418217495279779
1.0
1.0
1.0
1.0
1.0
1.0
1.0
1.0
1.0
1.0
1.0
1.1342685468827498
1.0942751253591638
1.0844750370874596
1.0798819132715622
1.0777145558564278
1.0768590563157934
1.0879812903863844
1.0867118750663
1.0848223061613385
1.0824208015195347
1.0794798123049985
1.0760237498686478
1.072121875877055
1.067867296279409
1.0633834634773838
1.0587584794278386
1.0540920654164045
1.049463050590396
1.0449565264114902
1.0406243978565677
1.036494429692567
1.0325996245449651
1.028967290129706
1.0256109460642355
1.0225183909692244
1.0196945036666194
1.0171381978854654
1.0148448696053192
1.0127905923153084
1.0109687873940412
1.0093691800538858
1.0079826333597097
1.0067887652327299
1.005780385130629
1.0049494121634899
1.004289012223932
1.0037866741491965
1.0034383088668
1.0032412091189944
1.0031934537881193
1.003291457636055
1.0035346404909744
1.003928583460343
1.004476226109764
1.0051807907505972
1.0060462443700071
1.0070859612783356
1.0083062805633183
1.00971447780815
1.0113162680197034
1.0131345600151054
1.0151740648730159
1.0174309765427663
1.0199346847263184
1.0226764988981394
1.0256555089515673
1.0288722199735785
1.032324073054385
1.0359903936728694
1.0398395419785134
1.043833847926263
1.047925539975667
1.05205430663807
1.0561439114495192
1.060107260939026
1.0638381767811553
1.0672402153776739
1.070204761175467
1.0726291950889173
1.0744756499498134
1.0757491296542467
1.0764613465897612
1.0467867126359238
1.0518854988356432
1.0201199576260098
1.0058086535818964
1.0016730944219323
1.003643953473442
1.0139159703702476
1.0733682590621578
1.0821127480097534
1.0311074516269445
1.0635343131890675
1.0566896083564208
1.0425530069895403
1.026824158255706
1.0156243684830655
1.0084497860131791
1.0043633666907057
1.0028457950553433
1.0030421383119266
1.00540110172117
1.0102988582174954
1.0190457121533825
1.0762815991466284
1.0856765463740083
1.029251347994379
1.0445295151422624
1.0659083944274772
1.0740341935275377
1.0030690691173465
1.0045811652141845
1.0038189396236543
1.0086117190561792
1.0070315731258457
1.013238466863976
1.0232041864540729
1.015754096713298
1.037486024671929
1.0554784210183894
1.0719808326073372
1.081161641706402
1.037206965768055
1.0782438804578136
1.0863580201860243
1.0536728204124848
1.0235734789424829
1.0130768699012573
1.065254612547742
1.0031970617046808
1.0035798971684975
1.0051657520538975
1.006342721207502
1.00984780492621
1.0118732841302711
1.0179114494489616
1.0300947518824215
1.0464794929964336
1.0356947715207243
1.0123546222970947
1.0031387478505371
1.007992746023656
1.0019375229346976
1.0902638568632421
1.0807843196565858
1.022636800604051
1.0445797958359413
1.0766486551251826
1.0869297755260319
1.0454993600728768
1.0301804092608537
1.0004324791505341
1.0622234022743684
1.0182593184383315
1.0105238649552195
1.001480192074249
1.032130055130909
1.049402651402714
1.0022866993597397
1.0028325900083659
1.0035487658542777
1.005618488151538
1.0068375250800479
1.0105845021209043
1.0140169741918665
1.019584629108633
1.071695918892753
1.06354020603128
1.0033690902097978
1.000551531133591
1.0019091551136903
1.0044738000783853
1.0011770815001335
1.0738826809294626
1.0689326711829723
1.0837058546832774
1.0778577806558867
1.0080518468617188
1.0609556676076548
1.0698224684459496
1.0035449189785464
1.0031569075483542
1.00335144486839
1.0041283581978078
1.0045480116205727
1.0061844181584236
1.0075849640787387
1.0055370264224972
1.0085721418310436
1.011722079850808
1.0104033232698582
1.0139270247345777
1.0208731836195728
1.0158334289378579
1.0270743108286606
1.0342521782272305
1.0515054326741986
1.0425620865666172
1.0395567069525866
1.036211234396682
1.09804359288131
1.0884747673459945
1.0302226312344114
1.0266177492672433
1.0193764510722738
1.0777981826736787
1.0869960848603497
1.0498144969370482
1.0417081090537066
1.0271153411566718
1.033926278228462
1.0581499476592628
1.0211277983204252
1.0654241844853296
1.0754785742537671
1.0715896579124946
1.0810291683784927
1.0859076149860707
1.0655604239256782
1.0740717881732227
1.0562842990023773
1.0470323751312867
1.0383626645379727
1.0306044806277166
1.0238980901294041
1.0163204924081168
1.0121235437033789
1.0182792656731818
1.0089275282656478
1.0137006855504231
1.0100775864140066
1.0065003987219499
1.0073102920296335
1.005304980221329
1.0047733162525527
1.0036843147246195
1.0039874182494328
1.0032948897812224
1.003199699354127
1.0240373631796142
1.0377827154591597
1.054027668838966
1.0247321286726871
1.034023732460472
1.0720977971973198
1.0654174799837242
1.0766798888236184
1.069455570442086
1.0590427086625216
1.0841870052394245
1.075105599234454
1.02423406925456
1.0512398268956769
1.0196470511527127
1.0091319952277844
1.0790605310424297
1.0704032424375205
1.0344440104040113
1.002701779895874
1.0033116148279442
1.0039833441360966
1.006144254903446
1.0075903593733435
1.0117379964197573
1.0131967781341227
1.0208948274260405
1.0530712607067994
1.0269044550922
1.0769456141368126
1.085352199293265
1.0490327234356507
1.0329780872662744
1.0415769166442508
1.0531510698815085
1.002383032822324
1.0026693255707044
1.003941897876346
1.0050219817454507
1.0079147687463585
1.0097441111643715
1.0144741837219393
1.025510833508332
1.0411378707548213
1.1079720345816333
1.0992860068858903
1.076666241687045
1.0879553717773494
1.0607630673145316
1.0029734959257717
1.0032515845864627
1.003170670946
1.0612209339209975
1.0037527172195284
1.0043770309205629
1.005600354742626
1.0053642879500755
1.006900873080188
1.008344677272723
1.0107080846850793
1.0101583451164493
1.0127990657612638
1.0154620586321164
1.0192794297072132
1.0265465441945187
1.0680748991431543
1.0320716547109827
1.0420100842661997
1.0488854823978324
1.017436276915509
1.0457873295682518
1.0304818317810764
1.038647169202337
1.0014570202921103
1.0217583128174508
1.0389659141604686
1.0837777942284563
1.0744046664712843
1.0002569129476677
1.028206231684891
1.0692428682499169
1.0781093492648286
1.0039401987152776
1.0875215105852305
1.0771331088710823
1.0872136422209837
1.0783251154732594
1.0690638763845892
1.0624278444848425
1.062006019412898
1.0185975232853035
1.0010538013864474
1.0163453138228058
1.006591684898678
1.0761908379559464
1.0872104901801078
1.0528187224082992
1.0469710940457824

SCALARS Omega double
LOOKUP_TABLE default
4.100276556407308
-10.327730833445809
-14.268649634738642
0.13217855986249427
4.4925154189612995
-2.683794594742833
-4.473557692259258
3.542292202969788
1.0314781561110729
20.84264546236023
-8.188675241607578
-0.4094725841087691
-0.8985276698910929
-0.23421412590811627
-0.11369117934317813
-0.03061232296358061
-0.11116919304619934
-0.1864351956800491
-0.6569893907880019
-0.6110339931753286
-6.115745433851125
17.943670552454858
3.5124636821887485
-1.0379081255189364
0.14534829875079894
0.03351225330518458
-0.32203137249506464
2.111361706135445
1.0918367584622695
0.7143021568230807
0.5849518359406695
0.5327239354683321
0.5070780224069585
0.4781902020549324
0.4415369016733736
0.3974118040969083
0.34773271854606047
0.29624643880457713
0.24497897398604743
0.19618319836199988
0.1508090792745663
0.10952057030796201
0.07261357333106307
0.04033356528402865
0.012569826495883977
-0.011155216283409566
-0.03108167356460088
-0.047524433624910156
-0.06081123055392519
-0.07154114817241045
-0.0800133668793675
-0.08658291325988003
-0.09151369669027776
-0.09520509406673859
-0.09785128075337345
-0.09967278638045905
-0.10081292032611103
-0.10146361097309767
-0.10170936370411926
-0.10162664589984592
-0.10124773917234436
-0.10059268995365667
-0.09964807656973397
-0.09834281977350143
-0.09661207334364814
-0.09434252323353154
-0.09142606477271176
-0.0876320405291685
-0.0827982530445901
-0.07668827593717858
-0.06909511059157342
-0.05954716673692751
-0.04780276230402327
-0.03366484299561665
-0.01647263067004336
0.003910610385262089
0.02774318327782338
0.05530921266055138
0.08677701638750028
0.1220369792513473
0.16057619744658838
0.20168966340103228
0.24401355697927435
0.28593513354658134
0.32478698478576545
0.3576014036028656
0.3795471837765343
0.3852480297909316
0.37065564339140983
0.3300024093716184
0.26103411902159185
0.16510920702913057
0.0663507961901443
0.3151066609645995
0.33936275961813633
-0.11646411584640057
-0.13091181683572378
-0.1057053947373804
-0.11366531699189521
-0.12385496256454377
0.717832814814232
0.8448250485738553
0.04691932463081642
0.4698816363856114
0.40812476644219986
0.16694964815572633
0.0028976243732871357
-0.07395201320298743
-0.10007929913288553
-0.1051961832776884
-0.10385531523211286
-0.10230764800046416
-0.09843617663903495
-0.08460641936003428
-0.040685546703587025
0.306509823386678
0.09488989698396015
0.051862580284798156
0.2173010971752961
0.43991743240258196
0.5280590912045596
-0.1016805327341122
-0.09715086388232248
-0.10234045025551403
-0.08372746065278451
-0.09659140941632405
-0.07320428438288025
-0.011171813334088811
-0.048931214338594646
0.11627858172073088
0.3207473143761967
0.4093844479290007
0.4908519595346649
0.13352115881342652
2.249060098528412
2.527400906550042
0.31560112314722205
0.0072442747736569755
-0.3187832015151169
0.43428950009216705
-0.1023107164279349
-0.09981672680819693
-0.10036140974821167
-0.09157772336316243
-0.0871124142982624
-0.06873047624018754
-0.04655443071846533
0.04633415743715223
0.21351025709726607
0.04064204436104706
-0.14344314095077093
-0.11680351217107945
-0.12342027440945841
-0.10619342433992286
0.9676272131432584
0.5747828452077318
-0.03102882912742985
0.23799458858295203
0.14049952675682645
0.45038738577358006
0.2219094250619577
0.06523633636364816
-0.09857920272228209
0.3875232529583858
-0.03006931315506951
-0.41888405666208334
-0.15081377582969116
0.03255473476753293
0.27537492664218277
-0.10461604809768539
-0.10807507545641405
-0.10488138734942504
-0.11268891749335364
-0.10497206106502337
-0.11310591889544744
-0.08190646638830956
-0.07324257408348177
0.836115491273397
0.6923071893395224
-0.20088350017346276
-0.09796273423327824
-0.14249521376102467
-0.20891322587695893
-0.11464439376097801
0.32160351673309195
0.399082697047959
0.5432661373653563
0.5181516017496958
-0.30164013257989936
0.3762588940013007
0.4676878572452752
-0.10188385786243132
-0.10167048549016755
-0.10038399742692593
-0.09788419482835697
-0.10072908908251846
-0.09731606294826116
-0.08620604991646018
-0.09350511021795639
-0.0902325720883994
-0.07756295382257664
-0.0742696508347036
-0.05627383315548241
-0.024308137777618682
-0.056498433404661215
0.023020212938462303
0.08697771472370139
0.26890626284670494
0.17062929204144248
-0.6191909705233123
-0.5147471304673914
2.329445210413345
1.9777754286767857
-0.011509753090842826
-0.23816945181388594
-0.12062840597732612
0.16690678550626148
-1.0217322324656521
0.2655263270175124
0.18017286102701058
0.03920624202852123
0.10148356225174257
0.34662518208069554
-0.008566554572155993
0.392091658901463
0.21860645631677134
0.3652352034988145
0.5338230300553239
0.7124939783486451
0.423415491255043
0.4972714426944511
0.3222716560726152
0.21880362948835652
0.12752226816884168
0.053812463614502364
-0.0016605244614783755
-0.04142751711384342
-0.06554015826901134
-0.041222271098098485
-0.08056121119053088
-0.06760882331079307
-0.08431568288402883
-0.09007802111289256
-0.09403084317427804
-0.09919219881941228
-0.0958258671848562
-0.09921865144241047
-0.10139588636391454
-0.10184385579394797
-0.10108310515691657
0.013962355673726598
0.13979950813105546
0.30760256715501183
-0.26389132344325494
0.0972591882603107
0.6218180568458027
0.5337798799573574
2.9039953503491183
2.1556481672093724
0.3856460486997709
0.431595943296644
0.4734073942979453
0.005161836291104908
0.30623709446960246
-0.024410279770666076
-0.28101076327263097
0.5921227734407316
0.5085895406244054
0.07552635195694975
-0.1032228026799597
-0.10472877219722757
-0.1008297851856033
-0.10385702853251576
-0.09299638651532507
-0.08998784105702372
-0.07147374767424526
-0.04182874261277772
0.310161523497743
0.034136076675377124
1.252325456800805
1.4785748052555139
0.2651621428170097
0.09036941130853196
0.18033100905310528
0.4136173839293631
-0.10537184546736608
-0.10433464515802544
-0.1101641539696761
-0.10444541001683816
-0.11200106139360436
-0.0977273954361478
-0.09915255139660667
-0.02848999529235586
0.14423108321168446
5.598342290653414
5.4033310027468255
-0.01285574687600803
2.0975690098934607
0.48885286925319543
-0.10265909367544451
-0.10312364184512354
-0.10135175664802411
0.4019969191486197
-0.0998378708448593
-0.10270278608005246
-0.10100548318283986
-0.09587031399528635
-0.09124231868492508
-0.09487802203911816
-0.08672270901414647
-0.07944057580299915
-0.06713678085480922
-0.06531816956760451
-0.04228605363787039
0.010999524149276976
0.48867831639245274
0.06039500139405224
0.16287207871942277
0.24370904452516556
-0.06902112215402775
0.22262514413948828
0.06938341448740447
0.1491413148397224
-0.10985030324681679
-0.16829940404307223
0.1522491571201842
0.3821709017065005
0.3751898799895736
-0.08900164952774035
0.03241093487364555
0.4400053865569071
0.5321896034509077
-0.134093009791786
0.46689765813547723
0.011219800398262616
-0.5101373837197665
0.34085161649394013
1.020318551155758
0.9271598345841625
0.3733238973240875
-0.026222376972435797
-0.17256925641429285
-0.05296710721654558
-0.16617297178344953
0.11856081645359304
1.248211804587094
0.572932839163224
-1.2167721654358306

SCALARS Vx_analytic double
LOOKUP_TABLE default
4.100276556407308
-10.327730833445809
-14.268649634738642
0.13210636896549374
4.4925154189612995
-2.683794594742833
-4.473557692259258
3.542292202969788
1.0314781561110729
20.84264546236023
-8.188675241607578
-0.4094725841087691
-0.8985276698910929
-0.23421412590811627
-0.11369117934317813
-0.03061232296358061
-0.11116919304619934
-0.1864351956800491
-0.6569893907880017
-0.6110339931753286
-6.115745433851125
17.943670552454858
3.51326469881118
-1.015770522417606
0.14755555476503995
0.034519694714189524
-0.3200761693580025
2.111361706135445
1.0918367584622695
0.7143021568230807
0.5849518359406695
0.5327239354683321
0.5070780224069585
0.4781902020549324
0.4415369016733736
0.3974118040969083
0.34773271854606047
0.29624643880457713
0.24497897398604743
0.19618319836199988
0.1508090792745663
0.10952057030796201
0.07261357333106307
0.04033356528402865
0.012569826495883977
-0.011155216283409566
-0.03108167356460088
-0.047524433624910156
-0.06081123055392519
-0.07154114817241045
-0.0800133668793675
-0.08658291325988003
-0.09151369669027776
-0.09520509406673859
-0.09785128075337345
-0.09967278638045905
-0.10081292032611103
-0.10146361097309767
-0.10170936370411926
-0.10162664589984592
-0.10124760588770639
-0.10059272251416079
-0.09964823888946132
-0.09834329002779796
-0.09661291456307566
-0.0943443180329621
-0.09142842497696543
-0.08763578432338953
-0.0828031648055315
-0.07669644455283227
-0.06910480135417812
-0.059561298022989755
-0.047822846659496425
-0.03367232955756164
-0.016485270462668577
0.0038885207242472034
0.027721619899187484
0.055297566179830955
0.08676836285102375
0.1220204181551226
0.1605745965904564
0.20170960473985466
0.24406648565723238
0.28600162843289345
0.3248965834322978
0.3577129028524848
0.37972788574381194
0.3856007407341104
0.3710283374539189
0.3304074315810454
0.2613683214901927
0.1653518644819144
0.06630767724691866
0.30728901128839864
0.3371705952467983
-0.11573713435951784
-0.13079939925928424
-0.10570530739692303
-0.11372776721909506
-0.1245635234889633
0.726999745864474
0.8347617123640076
0.0460072946182304
0.4679910200333328
0.410507366070797
0.16692150386728508
0.0031367464404938625
-0.07378368492677068
-0.1000155313062564
-0.10518111113091091
-0.10385279410051769
-0.10231036855227096
-0.09846818104262088
-0.08473001533735344
-0.0410166405091415
0.30863174918089725
0.10164154696829358
0.05153794262702764
0.2175443858775276
0.4422804299835307
0.527041471630203
-0.10168016190689602
-0.09715913460339126
-0.10233707936956085
-0.08376984655667831
-0.09657537267604996
-0.0731577544375331
-0.011102208051899308
-0.04907495761400166
0.11625285296670165
0.32025826372363914
0.41159597592209746
0.49215552205084306
0.13340683499760012
2.256243728659718
2.4658841921410457
0.31620108154500604
0.00704603949574186
-0.3199528985410446
0.43353011975199995
-0.1023093378833686
-0.09981863907431768
-0.10035351578985133
-0.0915930917324081
-0.08708203682678209
-0.06878597045857104
-0.04648316109943957
0.04641128566999731
0.2133889090917242
0.041510516246203374
-0.14299728189917435
-0.11677284040022913
-0.12376117555974796
-0.10620441747004436
0.8926160040032004
0.5831067656223173
-0.03178271468929672
0.23793722366973155
0.14188666966439753
0.45922608203477855
0.22203853199947665
0.06507804957635108
-0.09857970418106553
0.38847510632174337
-0.030156821372840575
-0.41751397733597445
-0.1508970348150312
0.03283310625115693
0.2746372800265834
-0.10461637779442245
-0.10806423683728801
-0.10490599819780856
-0.11263361368699858
-0.10508940531668601
-0.1129116707472473
-0.08229294187531185
-0.07287626429644946
0.8282370707627215
0.6979119996824015
-0.20066832271964052
-0.0979712552442858
-0.1424349100833008
-0.20985500551199898
-0.11468434607394072
0.3229200024471093
0.4004661822693074
0.5455847523216925
0.5182087383890811
-0.30079315839289317
0.3759623606179646
0.4672919993481235
-0.10188311210037654
-0.10166998930238295
-0.1003848155736071
-0.09788803337597379
-0.10072743388369945
-0.09731233114351563
-0.08622883718154829
-0.09351716260691699
-0.09022621720946952
-0.07755257787704235
-0.07432023351744187
-0.05635085572848168
-0.024297213404516887
-0.0564877608076053
0.02301223894930625
0.08694568984176436
0.2687318773907995
0.17053232277351632
-0.6002055963427029
-0.5404004463288988
2.3324891452080148
1.9952133216744676
-0.014257375910483008
-0.23526588578706764
-0.12196080181553658
0.16889581791879066
-1.006428557691485
0.26576576229925775
0.18013724736845468
0.03905096060289008
0.10135571939260597
0.34736223252355325
-0.008684205245393874
0.39328242254907353
0.2197150211872002
0.36633680513909556
0.5347506664525193
0.7167242240465601
0.42311181222412403
0.4970539927577598
0.3221080018124213
0.2187518414806627
0.12751929473468618
0.05384403617707471
-0.0016321619011798211
-0.04151177839394072
-0.06558837198522306
-0.04119302908352611
-0.08058901493474128
-0.06759096286723508
-0.08430316001559053
-0.0900913144272519
-0.094024690187175
-0.09918899727190371
-0.09583164473621693
-0.09922043495860884
-0.10139469132455138
-0.10184339018613899
-0.10108319770618128
0.013839461580997074
0.1397076345814964
0.3079785237011923
-0.2698287474312587
0.09687455990671422
0.6181302575724269
0.5377275276125973
2.8036412168382476
1.9883209682784049
0.38716990690133873
0.42802010794825995
0.47752160603987953
0.0047806807563041355
0.3069585639270374
-0.024649496640541446
-0.28242473028681603
0.5891892922886627
0.5124021305877868
0.07569958238619516
-0.10322229418232942
-0.1047229601569531
-0.10084257918877974
-0.10382404027131184
-0.09306730314716646
-0.08988404102066955
-0.07166203967242533
-0.04160898600373382
0.3094424045905631
0.033955210042705644
1.265000149454476
1.4602339461006983
0.26559399439162984
0.090190571305364
0.18038629003522083
0.41485591526593374
-0.10536884087016116
-0.10433919006463227
-0.11013654658675831
-0.10448750695734393
-0.111891848168243
-0.09790543813031191
-0.0988341580094173
-0.028031156497146745
0.14415474606705012
5.3209994142250086
5.209113604175131
-0.01209331310859967
2.094004440039171
0.4859303610450392
-0.10265762538334984
-0.10312123998733656
-0.10135337219446525
0.40109116349485396
-0.09984323741313614
-0.1026949631418724
-0.10099084052011956
-0.09589087269124859
-0.0912751158800494
-0.09484426639389759
-0.0866704441839568
-0.07952291274252243
-0.06724848280608557
-0.06522682251427628
-0.042172990889494416
0.011130253453009586
0.48724963469408444
0.060495925452641514
0.16281786222162226
0.2434374388313808
-0.06948053898089229
0.222663489204601
0.06925842402337086