# vtk DataFile Version 1.0
2D Simulation C++
ASCII
DATASET UNSTRUCTURED_GRID
FIELD FieldData 1
NODES 1 2 int
348 601

POINTS 348 double
0.0 0.5 0.0
0.0 1.0 0.0
2.0 1.0 0.0
2.0 0.5 0.0
0.0 0.528801679611206 0.0
0.0 0.564507782459259 0.0
0.0 0.6110168099403381 0.0
0.0 0.6721802353858948 0.0
0.0 0.7528436183929443 0.0
0.0 0.8593378663063049 0.0
0.16666941344738007 1.0 0.0
0.3333356976509094 1.0 0.0
0.5000020265579224 1.0 0.0
0.6666678786277771 1.0 0.0
0.8333337306976318 1.0 0.0
1.0 1.0 0.0
1.1666662693023682 1.0 0.0
1.3333321809768677 1.0 0.0
1.4999979734420776 1.0 0.0
1.6666642427444458 1.0 0.0
1.8333306312561035 1.0 0.0
2.0 0.8593378663063049 0.0
2.0 0.7528436183929443 0.0
2.0 0.6721802353858948 0.0
2.0 0.6110168099403381 0.0
2.0 0.564507782459259 0.0
2.0 0.528801679611206 0.0
0.029850948601961136 0.5 0.0
0.05970168858766556 0.5 0.0
0.08955242484807968 0.5 0.0
0.1194031685590744 0.5 0.0
0.14925390481948853 0.5 0.0
0.17910465598106384 0.5 0.0
0.20895539224147797 0.5 0.0
0.2388061285018921 0.5 0.0
0.2686568796634674 0.5 0.0
0.29850760102272034 0.5 0.0
0.32835835218429565 0.5 0.0
0.35820910334587097 0.5 0.0
0.3880598247051239 0.5 0.0
0.4179105758666992 0.5 0.0
0.44776129722595215 0.5 0.0
0.47761204838752747 0.5 0.0
0.5074627995491028 0.5 0.0
0.5373135209083557 0.5 0.0
0.5671642422676086 0.5 0.0
0.5970150232315063 0.5 0.0
0.6268657445907593 0.5 0.0
0.6567164659500122 0.5 0.0
0.6865672469139099 0.5 0.0
0.7164179682731628 0.5 0.0
0.7462686896324158 0.5 0.0
0.7761194705963135 0.5 0.0
0.8059701919555664 0.5 0.0
0.8358209133148193 0.5 0.0
0.865671694278717 0.5 0.0
0.89552241563797 0.5 0.0
0.9253731369972229 0.5 0.0
0.9552239179611206 0.5 0.0
0.9850746393203735 0.5 0.0
1.0149253606796265 0.5 0.0
1.0447760820388794 0.5 0.0
1.0746268033981323 0.5 0.0
1.1044776439666748 0.5 0.0
1.1343283653259277 0.5 0.0
1.1641790866851807 0.5 0.0
1.1940298080444336 0.5 0.0
1.2238805294036865 0.5 0.0
1.2537312507629395 0.5 0.0
1.2835819721221924 0.5 0.0
1.3134328126907349 0.5 0.0
1.3432835340499878 0.5 0.0
1.3731342554092407 0.5 0.0
1.4029849767684937 0.5 0.0
1.4328356981277466 0.5 0.0
1.4626864194869995 0.5 0.0
1.492537260055542 0.5 0.0
1.522387981414795 0.5 0.0
1.5522387027740479 0.5 0.0
1.5820894241333008 0.5 0.0
1.6119401454925537 0.5 0.0
1.6417908668518066 0.5 0.0
1.6716417074203491 0.5 0.0
1.701492428779602 0.5 0.0
1.731343150138855 0.5 0.0
1.761193871498108 0.5 0.0
1.7910445928573608 0.5 0.0
1.8208953142166138 0.5 0.0
1.8507460355758667 0.5 0.0
1.8805968761444092 0.5 0.0
1.910447597503662 0.5 0.0
1.940298318862915 0.5 0.0
1.970149040222168 0.5 0.0
1.7358819246292114 0.7499510645866394 0.0
0.2656642198562622 0.7486277222633362 0.0
0.49981194734573364 0.737183690071106 0.0
0.74151611328125 0.7359843254089355 0.0
0.9774143695831299 0.7371892929077148 0.0
1.201690912246704 0.7367381453514099 0.0
1.447761058807373 0.7383390665054321 0.0
1.8591958284378052 0.6421071290969849 0.0
0.14080412685871124 0.6421071290969849 0.0
1.588537573814392 0.6783608794212341 0.0
0.2553686201572418 0.6221352219581604 0.0
1.7466964721679688 0.6278358101844788 0.0
0.38199201226234436 0.6273008584976196 0.0
0.5013589859008789 0.6272794008255005 0.0
0.6207823157310486 0.6272526383399963 0.0
0.7401852607727051 0.627252459526062 0.0
0.8595882654190063 0.6272523999214172 0.0
0.9701492786407471 0.6212864518165588 0.0
1.0807102918624878 0.6272523999214172 0.0
1.2001131772994995 0.6272523999214172 0.0
1.3195161819458008 0.6272523999214172 0.0
1.4488563537597656 0.6310953497886658 0.0
1.9247323274612427 0.5706554055213928 0.0
0.07526770234107971 0.5706554055213928 0.0
1.5377081632614136 0.5910930037498474 0.0
1.6566967964172363 0.5934624075889587 0.0
1.8074009418487549 0.5708622932434082 0.0
0.1940300166606903 0.5737577676773071 0.0
1.0286364555358887 0.5665481686592102 0.0
1.14803946018219 0.5665481686592102 0.0
0.9116620421409607 0.5665481686592102 0.0
1.2674424648284912 0.5665481686592102 0.0
0.7922590970993042 0.5665481686592102 0.0
0.6728560328483582 0.5665482878684998 0.0
0.5534531474113464 0.5665481686592102 0.0
1.3892061710357666 0.5727682709693909 0.0
0.43402159214019775 0.5665869116783142 0.0
0.3146642744541168 0.5667200088500977 0.0
1.8656742572784424 0.5607567429542542 0.0
0.1343258023262024 0.5607567429542542 0.0
1.5970147848129272 0.5642029047012329 0.0
1.8783670663833618 0.7786769866943359 0.0
0.12163297086954117 0.7786769866943359 0.0
1.7164177894592285 0.562579333782196 0.0
1.4776118993759155 0.5620538592338562 0.0
1.5857784748077393 0.867691159248352 0.0
0.25373148918151855 0.5588531494140625 0.0
0.9701492786407471 0.5582930445671082 0.0
1.0895521640777588 0.5582930445671082 0.0
0.8507462739944458 0.5582930445671082 0.0
1.20895516872406 0.5582930445671082 0.0
0.7313433289527893 0.5582930445671082 0.0
1.3283581733703613 0.5582930445671082 0.0
0.6119403839111328 0.5582930445671082 0.0
0.49253740906715393 0.5582930445671082 0.0
0.37313446402549744 0.5582956075668335 0.0
0.36864349246025085 0.7376502752304077 0.0
0.602456271648407 0.7355343103408813 0.0
0.8441241383552551 0.7366551756858826 0.0
1.3355978727340698 0.7366551160812378 0.0
1.0895521640777588 0.7378703355789185 0.0
0.07051979005336761 0.6486480832099915 0.0
1.9294801950454712 0.6486480832099915 0.0
1.5086064338684082 0.6743985414505005 0.0
1.6785967350006104 0.6649783849716187 0.0
1.9543375968933105 0.5452249050140381 0.0
0.04566239193081856 0.5452249050140381 0.0
1.6567095518112183 0.5496091842651367 0.0
1.53738272190094 0.5491842031478882 0.0
0.91306072473526 0.8965699672698975 0.0
1.7782752513885498 0.5446287989616394 0.0
1.4163299798965454 0.5447981357574463 0.0
0.4287482798099518 0.8945969939231873 0.0
1.2610714435577393 0.8950135707855225 0.0
0.4313095211982727 0.6832783222198486 0.0
0.31561949849128723 0.6858259439468384 0.0
1.029850721359253 0.6781684160232544 0.0
0.9082015752792358 0.6848641633987427 0.0
1.1492537260055542 0.6781684160232544 0.0
0.7886138558387756 0.678956151008606 0.0
1.2709345817565918 0.684736430644989 0.0
0.6685023903846741 0.6868807673454285 0.0
1.4007169008255005 0.6702371835708618 0.0
0.5483440160751343 0.6792802214622498 0.0
0.19808045029640198 0.6887137293815613 0.0
1.797759771347046 0.6853783130645752 0.0
0.6811949610710144 0.8757594227790833 0.0
1.0189321041107178 0.8474968671798706 0.0
0.7922950983047485 0.8446238040924072 0.0
1.3765455484390259 0.8590760827064514 0.0
1.1571698188781738 0.8478953838348389 0.0
1.8954496383666992 0.5359624624252319 0.0
1.8360060453414917 0.5359931588172913 0.0
0.10455036163330078 0.5359624624252319 0.0
0.16417928040027618 0.5353734493255615 0.0
0.5530290007591248 0.8422092199325562 0.0
0.2832632064819336 0.5367912650108337 0.0
0.22469767928123474 0.5394234657287598 0.0
0.9405550956726074 0.5357381105422974 0.0
0.9997434020042419 0.5357381105422974 0.0
1.0600273609161377 0.5365630984306335 0.0
1.1191463470458984 0.5357381105422974 0.0
0.8802711367607117 0.5365630984306335 0.0
0.8211521506309509 0.5357381105422974 0.0
1.2385493516921997 0.5357381105422974 0.0
1.179430365562439 0.5365630984306335 0.0
0.7608681321144104 0.5365630984306335 0.0
0.7017492055892944 0.5357381105422974 0.0
1.2988333702087402 0.5365630984306335 0.0
1.357560396194458 0.5390686392784119 0.0
0.5823462605476379 0.5357381105422974 0.0
0.6414651870727539 0.5365630984306335 0.0
0.5220622420310974 0.5365630984306335 0.0
0.4629422128200531 0.535739541053772 0.0
0.3435409665107727 0.5357455015182495 0.0
0.4026572108268738 0.5365669131278992 0.0
0.21006634831428528 0.8590372204780579 0.0
1.7943172454833984 0.8627070188522339 0.0
0.06134982034564018 0.7191494703292847 0.0
1.938650131225586 0.7191494703292847 0.0
1.634666085243225 0.7584379315376282 0.0
0.3355695903301239 0.8387951850891113 0.0
1.537941336631775 0.7633647918701172 0.0
1.9670078754425049 0.574067234992981 0.0
0.032992132008075714 0.574067234992981 0.0
1.6862140893936157 0.5314788222312927 0.0
1.6272135972976685 0.5317342281341553 0.0
1.5077245235443115 0.5309156775474548 0.0
1.5668202638626099 0.5316618084907532 0.0
1.7466963529586792 0.5298213958740234 0.0
1.4473658800125122 0.5297333002090454 0.0
1.804386019706726 0.5275400876998901 0.0
1.9283779859542847 0.5282225012779236 0.0
1.8656879663467407 0.5267112255096436 0.0
0.13432854413986206 0.5271331071853638 0.0
0.07162196189165115 0.5282225012779236 0.0
0.25373148918151855 0.527070939540863 0.0
0.19419340789318085 0.5297109484672546 0.0
0.31349387764930725 0.5272363424301147 0.0
0.37313446402549744 0.5270199179649353 0.0
0.4329495429992676 0.5274069309234619 0.0
0.49253740906715393 0.5270196795463562 0.0
0.5523557066917419 0.5274024605751038 0.0
1.3898069858551025 0.5277745127677917 0.0
1.3283581733703613 0.5270196795463562 0.0
0.6119403839111328 0.5270196795463562 0.0
1.2685397863388062 0.5274024605751038 0.0
0.6717586517333984 0.5274024605751038 0.0
0.7313433289527893 0.5270196795463562 0.0
1.20895516872406 0.5270196795463562 0.0
0.7911616563796997 0.5274024605751038 0.0
0.8507462739944458 0.5270196795463562 0.0
1.1491369009017944 0.5274024605751038 0.0
1.0895521640777588 0.5270196795463562 0.0
0.9105646014213562 0.5274024605751038 0.0
0.9701492786407471 0.5270196795463562 0.0
1.0297338962554932 0.5274024605751038 0.0
1.4776118993759155 0.5259945392608643 0.0
1.597015619277954 0.5255197882652283 0.0
1.7164177894592285 0.525999903678894 0.0
1.6834615468978882 0.8477573990821838 0.0
1.5822722911834717 0.6086509227752686 0.0
0.20459823310375214 0.6270732283592224 0.0
1.8037469387054443 0.6209055185317993 0.0
0.09990309923887253 0.8589919805526733 0.0
1.9000968933105469 0.8589919805526733 0.0
1.75603187084198 0.5789161324501038 0.0
0.10896337777376175 0.5982794761657715 0.0
1.8910366296768188 0.5982794761657715 0.0
1.4950518608093262 0.605266273021698 0.0
1.7049394845962524 0.6007562279701233 0.0
1.4387125968933105 0.5775743722915649 0.0
1.489302158355713 0.851039469242096 0.0
0.15732239186763763 0.5961292386054993 0.0
1.8436260223388672 0.5944437384605408 0.0
0.4399496018886566 0.6259797215461731 0.0
1.022565245628357 0.6257523894309998 0.0
[...]
POINT_DATA 348
SCALARS Psi double
LOOKUP_TABLE default
1.098660828617585
1.0
1.0
1.098502326247732
1.0984886013204271
1.0980110976898576
1.0990634102031691
1.1025647474676885
1.1096944043980022
1.1444191873324048
1.0
1.0
1.0
1.0
1.0
1.0
1.0
1.0
1.0
1.0
1.0
1.1399454512546001
1.1072972681440219
1.1020485627908818
1.09988889909419
1.0989474937294506
1.0985834990114691
1.098814374914725
1.0979311117158481
1.096752282590748
1.0953712589910316
1.093744109495712
1.0918525381268758
1.0897185090034873
1.0873757433137772
1.0849068266947852
1.082350586534291
1.0797578090519975
1.0771652837391625
1.0746346795234738
1.0721850017277776
1.0698200339829416
1.0675543184582548
1.065418544885347
1.0634159606428968
1.0615289792372993
1.0597634536275926
1.0581398458101645
1.0566574642795166
1.0552944553305377
1.0540554378743625
1.0529593244242181
1.0520052078233495
1.0511715992757158
1.050462478671352
1.0498959293603405
1.0494703650151818
1.049164921822293
1.0489823256602278
1.048940495944886
1.0490413378963956
1.0492655823133006
1.0496061687488636
1.050081742187149
1.0506924241355298
1.0514182058005166
1.0522536580648498
1.0532181008227226
1.0543111321389125
1.0555121850445726
1.0568153920542882
1.058247906435026
1.0598066738495981
1.0614383257358702
1.0632174508792345
1.065109206504929
1.0671050085265816
1.0692160967780013
1.0714444849088063
1.0737814250501123
1.0762045531844167
1.0786967327918184
1.0812331043667478
1.0837836125672597
1.0863023643389316
1.088734458986692
1.091010831945992
1.0930861921389752
1.0948687205498404
1.0962985449455287
1.0973600862035375
1.098054077022744
1.0984133603919592
1.0666125521917038
1.0662721312639905
1.044682357271766
1.0335253858943139
1.0296395104449159
1.0327973430090613
1.0430363575511246
1.0948147036395408
1.0943248006921396
1.0626145483535385
1.082721521253927
1.0836353670164935
1.0696564466180478
1.0599465018926095
1.0526206358424128
1.047471596279544
1.0443952235961569
1.0438533777372898
1.0440897952157735
1.0467944942850524
1.051385144326141
1.0579582366163165
1.0981468257329958
1.0968345087954026
1.0673706326908194
1.0772684146219405
1.091633342209822
1.0902867948192236
1.0475964508484952
1.0494734096495342
1.0477517173634139
1.0533003091045248
1.0499893610647237
1.0543275641535477
1.060778763717201
1.0588093467365358
1.0693518471797765
1.079729934559384
1.0956103156834414
1.0944531739496217
1.0735997940930848
1.0908457838235497
1.0932194774466735
1.0840383843391777
1.0647211856394834
1.0230658287654908
1.0854315021382215
1.0476948067248513
1.048581850456178
1.0489125699138193
1.0514664123734883
1.0522208585256054
1.0562531858847188
1.0576396413079625
1.0651778943182895
1.0747285877532164
1.0556162696356854
1.0390583284985218
1.0309014470699782
1.037705482668617
1.0302461298190302
1.0998948590050464
1.100055830530672
1.0570523333519053
1.0732327147666871
1.0984637749254387
1.0977706352228305
1.0792096349801585
1.0694610692296755
1.0050011605129205
1.0897160664012202
1.061474952876776
1.0160668042995236
1.0071810584706777
1.059090116042522
1.0700134996338109
1.0383025166384514
1.0377110146286361
1.040077443163412
1.0405136299362443
1.0430959843127139
1.0437510989009868
1.0509466718395144
1.0509494525314749
1.0854939469829503
1.0853902599314973
1.0115334771036024
1.0108723582639567
1.0129365647057138
1.0155965715172268
1.0121182122807475
1.0969444319344837
1.0939727520834202
1.0959992001121406
1.0927735842095647
1.0194865081820053
1.0833664429295504
1.0882836218246854
1.0486451714881642
1.0485582129808584
1.0489914982856616
1.0499541302252704
1.049237714584293
1.050379803657422
1.0533258771894463
1.0513957286137636
1.0520372252810923
1.0542264027232335
1.0557266927964977
1.05845927576799
1.0601861845816876
1.0569514037955923
1.0639737019590116
1.0682335381511296
1.0780796965829746
1.0730079923871982
1.0440841378388201
1.0432042465549023
1.1056047623981409
1.1039327711001767
1.0529201946779263
1.036060027375163
1.0439911034218723
1.098978191920601
1.0974380556447807
1.0822123788872609
1.07715868052421
1.0678394983029502
1.0722401593255606
1.0874004121682328
1.0638412284520076
1.0918833590157142
1.0978795945529438
1.0956233425977377
1.0945442969786483
1.097315052787911
1.0859925367213656
1.0907014429644608
1.0808376557806243
1.0756296918470356
1.0707075045028598
1.0661790106187548
1.0621646433306904
1.0604353361792571
1.057223755374889
1.0586420329659179
1.0546169155992187
1.0556736448001034
1.0532031476234143
1.0524367626909361
1.0512929590897804
1.0498793487936566
1.0507635269503024
1.0495458413873242
1.0490268135216705
1.048662841859404
1.048863310685774
1.0658402582682667
1.0747518956418132
1.0848643051461013
1.0358272449187798
1.0696993206329004
1.088047715823334
1.0899235069025583
1.079334184108719
1.0750311721565642
1.0870471136757236
1.0959693621049487
1.0970923903031145
1.0633188583987074
1.0812704565408304
1.0614460229998468
1.0223334589165862
1.0929748948094518
1.0940525027416454
1.06484011012974
1.0436940035865403
1.0438470908805946
1.0454315301636514
1.0459052262946273
1.0491244356371978
1.0500607606557981
1.054098738242743
1.0563031659349762
1.076027966413041
1.0667477806234356
1.0949745052209414
1.0953760147113574
1.0809851992199901
1.0706955180381386
1.076265696675244
1.0777050674227744
1.038566245238249
1.038802289573674
1.0391372709932232
1.0418922844518674
1.0425846659133249
1.0465585083764535
1.0473662577516598
1.055164851067068
1.0653021895372814
1.1129693878121076
1.1096448921646818
1.0985024941980968
1.0987130526024478
1.0786372861349098
1.0464166379911264
1.0463162956739995
1.0467810216618108
1.0825550535195294
1.047618971692945
1.0470409196993826
1.0480113293153248
1.0492580256943482
1.05084968371517
1.0498990854295764
1.0516836274346915
1.053652045192485
1.0558767726745144
1.0548587754133394
1.057459029623139
1.0619502450452942
1.0865717294299815
1.0653953110372867
1.0712159054398651
1.0753568251493073
1.0526077732035743
1.0797907392905184
1.0701223270409572
1.0715481591946576
1.0208225949338148
1.038860520125729
1.0735737166328188
1.0958623373936112
1.0970368994681354
1.0026576861994896
1.0640787066278754
1.093810659660939
1.0926897763743788
1.024957416677204
1.0981356473625108
1.0986987160270436
1.0975966122885175
1.0991212199736669
1.0798003872089614
1.079233731298151
1.0898307047278553
1.0621545686879272
1.003487615429967
1.0570439724352707
1.027118006117548
1.0982702646608584
1.098208842598078
1.0531420877466648
1.0482081391361495

SCALARS Omega double
LOOKUP_TABLE default
3.8457489144867716
-11.349454621239826
-16.177174741845132
0.04227105608743596
4.495823022758144
-2.985212121542875
-4.7176914832813335
3.1537361261899894
0.4983352272185032
20.837514710929497
-9.339089486356718
-1.8709722740273043
-2.8123864630498776
-2.1487957259563073
-1.7940128703692912
-1.9290251995948606
-2.204503866910301
-2.326643507250291
-2.62965840855798
-2.397680355651408
-7.543144472538293
17.65458583171855
3.3526143089592275
-1.005444524787407
0.270101760057713
-0.08895243011026369
-0.08991517135463654
1.9055740859285992
0.8743838069264889
0.5064408315601223
0.40906691551901464
0.403537654521585
0.43460749687553973
0.4681837944786414
0.4972371096515442
0.5190634808417289
0.534012458570169
0.5446593393596604
0.5519817658796092
0.5569172900848284
0.5599437698896996
0.5618638364648607
0.5627098580238733
0.56247313850546
0.5611884744656844
0.5592588980684496
0.5566810960971496
0.5535372680901526
0.5499503813586688
0.5463728339610859
0.542887574399762
0.5396402564184785
0.5367185180519517
0.5343575626676369
0.5325325525773595
0.5312048947019138
0.5303682434784635
0.5300962780231834
0.5303464706480351
0.5310506724322972
0.5321858724278108
0.5337383052393805
0.5357184605286553
0.537940409259333
0.5403984021094181
0.5431331600886843
0.5462167668342147
0.5494351408942425
0.5527654037035362
0.5561744861966674
0.5596735107889902
0.5628215193231149
0.5656438101340322
0.5686444938053588
0.5708194405750858
0.5726513359434049
0.5742325127039096
0.5754615335333503
0.5762346904621021
0.5765749131372913
0.5763494226142047
0.5752371024806149
0.5723913590942091
0.5670822748779998
0.557983735787367
0.5438420719799784
0.5218634108165802
0.4881826294900435
0.4415966180972703
0.37825426774734006
0.29685324088575676
0.19959400537061792
0.09548598537779986
0.7766390353586495
0.734305866044111
0.5727489112623217
0.4324134926966146
0.38785889159815273
0.45329843100274425
0.6088811828322026
0.8085449603699215
0.7428013048043356
0.6809854981640342
0.6571734634739841
0.7090491049340794
0.6378005793037739
0.6264076937889574
0.6021170355519742
0.571956291407204
0.557329763470631
0.5545843168661264
0.5672575897304791
0.5857885493708035
0.6138657709709469
0.6399874149665361
0.33222182294467967
-0.13732825360928874
0.6176540215967817
0.6326074389717844
0.5776520818719255
0.5107096430254384
0.5453711762607896
0.5561859514971483
0.54206283655171
0.572025814508571
0.5479952419158145
0.5638364641626699
0.5805288676033062
0.5919897570069684
0.5857012011080737
0.5754003985111017
0.4719480659856627
0.3427690650242283
0.6010050945420485
2.3144134853079037
2.480107395737708
0.5992612785190689
0.5932821166208422
-0.5272907894661769
0.5468831430894041
0.5400484435180674
0.5475653058676587
0.5413660727478006
0.5605136861487339
0.5522787423232515
0.576877487280886
0.5696738280028879
0.5806672007735861
0.5773458380915317
0.6029890294586469
0.5214355546256388
0.39901041784656827
0.5424405891022248
0.4352682633648411
0.6988731132690011
0.5867702042759675
0.6692297625548979
0.7309725807939449
0.16864628075406976
0.22225362754929814
0.5919779516824513
0.5893535968170861
-1.412019734563362
0.5583009553011195
0.5801769323370227
-0.9777887869894
-1.2599367104042696
0.6718250939201801
0.7102461866257613
0.5488660583991022
0.5415255404351054
0.5712837083655734
0.5488790657445809
0.6133238785699123
0.5865023744818706
0.6558200295683515
0.6342622944366991
0.9557022751945177
0.949153976314646
-0.9285777124356961
-0.6430214233986804
-0.581407129259198
-0.4720420952626704
-0.6025291289637958
0.3615351887230188
0.4875335385188322
0.3481329828605438
0.41997076471469547
-0.3708441989103524
0.5391834117541584
0.5007342568445624
0.5337185543566902
0.5352010808659518
0.5387667177140922
0.5432625771133709
0.5344734404615661
0.5370371060694289
0.5559320135175504
0.5493444709085297
0.5422523627301735
0.5489227274069352
0.5635864527102032
0.5712756342246871
0.5635461449031078
0.556976564369529
0.5683362478663855
0.5690587965452985
0.5574909047307711
0.5663185164776631
-0.7689845742371388
-0.6847592274357034
2.013740937976202
1.9154164268511156
0.5781467704744131
-0.12920863103056832
0.5056167828772657
0.17236418631038156
-1.28399429640567
0.5780474111398264
0.582484251041295
0.5799158852447465
0.5820816515547463
0.5602440405137347
0.5760061343962846
0.5189373115141617
0.25083766182845646
0.42453966448413477
0.3811886344203143
0.493046469630613
0.5176635645291285
0.4602904405066393
0.5462811969673188
0.5600471216010556
0.5656848354323494
0.5669829406438549
0.5641710394019547
0.5712168707670799
0.5651145440314284
0.5586619558539083
0.5578735520075165
0.5512361433507711
0.5439585630836008
0.5509126876223486
0.5379946302472052
0.5342016495999494
0.5445940807383589
0.5394628172509459
0.5325598389617626
0.5330026254412811
0.5354188159539041
0.5773272861066999
0.5808514771927177
0.5697222758061226
-0.22488421357611413
0.6375224859328215
0.6801679218592497
0.7133514448896391
2.677597258804618
1.8804720453070407
0.6143582900271738
0.2433890631786328
0.5175453623841383
0.6259004309726816
0.6504940084189282
0.6000398342467809
-0.3077906068862663
0.5035495896909162
0.6050197089309652
0.633940286636082
0.5616573457455809
0.5581389403018996
0.5773389297532348
0.5639039635361767
0.6016288214866944
0.5877392833829415
0.6229262268339648
0.6167127838782904
0.6525270556598968
0.5991229928999907
1.3335916861205455
1.3862292294995449
0.6071574891944775
0.6029735391362409
0.6051433795723137
0.8014100982510869
0.5379158033672548
0.5520474391966901
0.5342814522487654
0.5792765642509325
0.559955057623512
0.6216510372101174
0.6050831403857341
0.6456810822179696
0.6698638507305287
5.391013361821556
5.307788877881051
0.057045570197339426
1.9275171537774314
0.7614186607437139
0.5487205547020211
0.5482151679396223
0.5553945079470859
0.5910911681879311
0.5597319306443327
0.5491592570823235
0.5512002422679708
0.5693116443523558
0.5759650708304159
0.5591936451006826
0.5659964241378925
0.5890994644670839
0.5957499318525814
0.5800785720711339
0.5872210087442455
0.5975236157684791
0.5757333191003765
0.5996175164457263
0.6017127325142583
0.5980771224875526
0.6563027330063765
0.5782093101184778
0.5790262454975655
0.6643108658295973
0.0468186662454531
0.34688076789383093
0.6283284598518328
0.18761752062390838
0.41576715432143674
-1.820030979223773
0.6527125136365065
0.5358590583818643
0.44201176486499094
0.17990749687305582
0.25994845800193755
0.041563474740544795
-0.7702402557921452
0.36318287760303336
1.1753208058012252
1.182492867780581
0.5391185133200966
0.5720644789450361
-1.8108790208043202
0.6241895693187254
0.1928083908506717
0.15738545328579212
1.0361250468368317
-0.10737556876832106
-2.3044460578251464

SCALARS Vx_analytic double
LOOKUP_TABLE default
3.8457489144867716
-11.349454621239826
-16.177174741845132
0.04229806755603483
4.495823022758144
-2.985212121542875
-4.7176914832813335
3.1537361261899894
0.4983352272185032
20.837514710929497
-9.339089486356718
-1.8709722740273043
-2.8123864630498776
-2.1487957259563073
-1.7940128703692912
-1.9290251995948606
-2.204503866910301
-2.326643507250291
-2.6296584085579777
-2.397680355651408
-7.543144472538293
17.65458583171855
3.358151462563554
-0.9988637882945579
0.2706705046818669
-0.08777056834121391
-0.08953804685023342
1.9055740859285992
0.8743838069264889
0.5064408315601223
0.40906691551901464
0.403537654521585
0.43460749687553973
0.4681837944786414
0.4972371096515442
0.5190634808417289
0.534012458570169
0.5446593393596604
0.5519817658796092
0.5569172900848284
0.5599437698896996
0.5618638364648607
0.5627098580238733
0.56247313850546
0.5611884744656844
0.5592588980684496
0.5566810960971496
0.5535372680901526
0.5499503813586688
0.5463728339610859
0.542887574399762
0.5396402564184785
0.5367185180519517
0.5343575626676369
0.5325325525773595
0.5312048947019138
0.5303682434784635
0.5300962780231834
0.5303464706480351
0.5310506724322972
0.532194940487017
0.5337510363986095
0.5357387931413338
0.5379646739744326
0.5404292335449945
0.543169724248518
0.5462619963443903
0.54948552213054
0.5528234958017693
0.5562404770107858
0.55975008019298
0.5629116329651802
0.5657406926652916
0.5687189741359572
0.5709024554509451
0.5727481691363192
0.5743402096848936
0.5755734413610216
0.5763587984329567
0.5767140092089715
0.5765005752501855
0.5753936215214016
0.5725668786020398
0.5672754310321173
0.5581872573823208
0.5440255516456236
0.5220578220452414
0.48847389159297167
0.44185490807431976
0.3784975510500009
0.29702263557322706
0.199710954531288
0.09553698566500018
0.7700767678907919
0.7321364096281473
0.5727986785542819
0.4326714046200574
0.3884198439927215
0.45105698241832304
0.6065621237627987
0.8166333329999984
0.736600047099679
0.680214420294015
0.6553359981180933
0.7127707844533083
0.6369142262692727
0.625775732036655
0.6016448742950068
0.5717390839504711
0.557311576957835
0.5546806924634691
0.5673594385555314
0.5859677954767764
0.6141039017844
0.640400247966292
0.3333831630448099
-0.1340438099166268
0.6183395727418273
0.6338583221820191
0.5795633687539838
0.5099537825169114
0.5454381203825515
0.5563425677536817
0.5420358802189443
0.5723115509302039
0.5478804470158282
0.5636053990848544
0.580191891548367
0.5924436344498484
0.5852754282756746
0.5748098630483288
0.4733405575109125
0.34347805239002854
0.6017591129877388
2.356115633734559
2.4156240691819963
0.6003495045191175
0.5937879607902695
-0.5336194208513259
0.546185909568255
0.5400678939334149
0.5476700953697727
0.5412999439665961
0.5607209613122802
0.5521175867333573
0.5772082927528764
0.5694048998947067
0.5803073547580979
0.5768731040978179
0.6033515852105936
0.519719034342826
0.3973349166538249
0.53986444917182
0.43412134250882517
0.6429839225656779
0.5929124762436473
0.6682290912892963
0.7320689447071291
0.16923039056679234
0.22606669817200542
0.5927748129112124
0.589864572643046
-1.408725168335552
0.5592752398560482
0.5805202393195951
-0.971875925192525
-1.2580772219247542
0.670792015970291
0.7083910290317011
0.5488253602037398
0.5411477105281022
0.5708788053774648
0.5486699115827148
0.6127407706945236
0.5859426788977562
0.6555667061082279
0.6335426108540708
0.9476689274607646
0.9565511850240243
-0.9236029187283106
-0.642161379766319
-0.5801448565203268
-0.4771230416746933
-0.6057445299434422
0.3622695608920447
0.4885066761502704
0.34933048974823355
0.4200032532242118
-0.3686929803920468
0.5389653959069467
0.5004912312201734
0.533712453149051
0.5352330969712251
0.5388208417771645
0.5433599472549421
0.5344520565774254
0.53699544337469
0.5561175686459816
0.5494711498822914
0.5421909569410592
0.5488393864361796
0.5638151336913423
0.5715772282718536
0.5634278994943162
0.556873284952848
0.5682076610659544
0.5689194936286915
0.5573158271368298
0.5661683379190116
-0.7397732158379697
-0.7013540047944202
2.009626014849781
1.9497324354607277
0.5708949655090944
-0.11890596771130213
0.4992379945912889
0.1733947478575529
-1.2730469915941875
0.5787098404662318
0.5830226985880809
0.5802900095342027
0.5825224074105106
0.5611569751808683
0.5763372098391037
0.5198686752121557
0.2513539689745115
0.4251983385372491
0.38167986241373003
0.4949668231101222
0.5174404017160725
0.46013758845587194
0.546106132522381
0.559896490980476
0.5655572394973334
0.5668653042071438
0.5640684116016486
0.5714790277448315
0.5653018272202256
0.5585729513081873
0.5580335164146728
0.5511640661725413
0.5439041837208118
0.5510246140381935
0.5379564257897681
0.5341793705122504
0.5446780772077634
0.5395123456257007
0.5325521267347827
0.5330083798241687
0.5354438005120742
0.5776239763716178
0.5812645334978208
0.5703532746950084
-0.24591098853911486
0.6383186117743722
0.6772407479384854
0.7170297079868084
2.5791535836664723
1.785399690922821
0.6162738028039492
0.2411623753130291
0.5200926909582002
0.626475471694412
0.6521974888370199
0.60055160788251
-0.31585884024490796
0.5015687677008734
0.608145319258589
0.6331914847958613
0.5617242435878557
0.5580777923421628
0.5774361651338714
0.5637408283621819
0.6018727787659803
0.5873515146057483
0.6233738073127909
0.6161287672619645
0.6512381570398934
0.5996710396993834
1.3506092207879412
1.3707631329402523
0.6082871771585402
0.6036668963014485
0.6059873959829205
0.8044456382267555
0.53816625162115
0.5521351363636677
0.5345669069156332
0.5796766253176963
0.5598424661900437
0.6215398910369188
0.6046600710062395
0.6451300736082988
0.6692049746120097
5.11957492711461
5.1579041204843
0.05727690670888979
1.9219476388681054
0.7582966879585504
0.5487476284791132
0.5482237962059507
0.5554915241703839
0.5900693952117005
0.5598545214579184
0.5490953439517743
0.5511083885274186
0.5695143198961495
0.5762397796112914
0.5590164280609807
0.5657672767683976
0.5894601701755043
0.5961752446069846
0.5797430296435758
0.5868518141069657
0.5970556011918711
0.5744901334321669
0.5991242202109259
0.60109732604631
0.5973872197318189
0.6560398620141459
0.5786259450724685
0.5793114749285079
0.6656809749460623
0.043781543740241936
0.34666592057465345
0.6292961580181696
0.1892030336909059
0.41704800628530314
-1.816953643440362
0.6532116529760149
0.5375379063219193
0.44147632857163444
0.17512436007118679
0.2620896053831479
0.04218172742023605
-0.7909057276564464
0.36433816440548594
1.1555392864574916
1.20072526094032
0.5396995446289181
0.5722637751087444
-1.8055982047721792
0.6246575366169353
0.18997527700878036
0.15759326674551002
1.03607416016189
-0.3280021925948756
-2.3803976774873976

VECTORS Velocity double
1.0 0.0 0.0
0.0 0.0 0.0
0.0 0.0 0.0
0.0015152106249869998 0.0 0.0
1.0 0.0 0.0
1.0 0.0 0.0
1.0 0.0 0.0
1.0 0.0 0.0
1.0 0.0 0.0
1.0 0.0 0.0
0.0 0.0 0.0
0.0 0.0 0.0
0.0 0.0 0.0
0.0 0.0 0.0
0.0 0.0 0.0
0.0 0.0 0.0