# vtk DataFile Version 1.0
2D Simulation C++
ASCII
DATASET UNSTRUCTURED_GRID
FIELD FieldData 1
NODES 1 2 int
348 601

POINTS 348 double
0.0 0.5 0.0
0.0 1.0 0.0
2.0 1.0 0.0
2.0 0.5 0.0
0.0 0.528801679611206 0.0
0.0 0.564507782459259 0.0
0.0 0.6110168099403381 0.0
0.0 0.6721802353858948 0.0
0.0 0.7528436183929443 0.0
0.0 0.8593378663063049 0.0
0.16666941344738007 1.0 0.0
0.3333356976509094 1.0 0.0
0.5000020265579224 1.0 0.0
0.6666678786277771 1.0 0.0
0.8333337306976318 1.0 0.0
1.0 1.0 0.0
1.1666662693023682 1.0 0.0
1.3333321809768677 1.0 0.0
1.4999979734420776 1.0 0.0
1.6666642427444458 1.0 0.0
1.8333306312561035 1.0 0.0
2.0 0.8593378663063049 0.0
2.0 0.7528436183929443 0.0
2.0 0.6721802353858948 0.0
2.0 0.6110168099403381 0.0
2.0 0.564507782459259 0.0
2.0 0.528801679611206 0.0
0.029850948601961136 0.5 0.0
0.05970168858766556 0.5 0.0
0.08955242484807968 0.5 0.0
0.1194031685590744 0.5 0.0
0.14925390481948853 0.5 0.0
0.17910465598106384 0.5 0.0
0.20895539224147797 0.5 0.0
0.2388061285018921 0.5 0.0
0.2686568796634674 0.5 0.0
0.29850760102272034 0.5 0.0
0.32835835218429565 0.5 0.0
0.35820910334587097 0.5 0.0
0.3880598247051239 0.5 0.0
0.4179105758666992 0.5 0.0
0.44776129722595215 0.5 0.0
0.47761204838752747 0.5 0.0
0.5074627995491028 0.5 0.0
0.5373135209083557 0.5 0.0
0.5671642422676086 0.5 0.0
0.5970150232315063 0.5 0.0
0.6268657445907593 0.5 0.0
0.6567164659500122 0.5 0.0
0.6865672469139099 0.5 0.0
0.7164179682731628 0.5 0.0
0.7462686896324158 0.5 0.0
0.7761194705963135 0.5 0.0
0.8059701919555664 0.5 0.0
0.8358209133148193 0.5 0.0
0.865671694278717 0.5 0.0
0.89552241563797 0.5 0.0
0.9253731369972229 0.5 0.0
0.9552239179611206 0.5 0.0
0.9850746393203735 0.5 0.0
1.0149253606796265 0.5 0.0
1.0447760820388794 0.5 0.0
1.0746268033981323 0.5 0.0
1.1044776439666748 0.5 0.0
1.1343283653259277 0.5 0.0
1.1641790866851807 0.5 0.0
1.1940298080444336 0.5 0.0
1.2238805294036865 0.5 0.0
1.2537312507629395 0.5 0.0
1.2835819721221924 0.5 0.0
1.3134328126907349 0.5 0.0
1.3432835340499878 0.5 0.0
1.3731342554092407 0.5 0.0
1.4029849767684937 0.5 0.0
1.4328356981277466 0.5 0.0
1.4626864194869995 0.5 0.0
1.492537260055542 0.5 0.0
1.522387981414795 0.5 0.0
1.5522387027740479 0.5 0.0
1.5820894241333008 0.5 0.0
1.6119401454925537 0.5 0.0
1.6417908668518066 0.5 0.0
1.6716417074203491 0.5 0.0
1.701492428779602 0.5 0.0
1.731343150138855 0.5 0.0
1.761193871498108 0.5 0.0
1.7910445928573608 0.5 0.0
1.8208953142166138 0.5 0.0
1.8507460355758667 0.5 0.0
1.8805968761444092 0.5 0.0
1.910447597503662 0.5 0.0
1.940298318862915 0.5 0.0
1.970149040222168 0.5 0.0
1.7358819246292114 0.7499510645866394 0.0
0.2656642198562622 0.7486277222633362 0.0
0.49981194734573364 0.737183690071106 0.0
0.74151611328125 0.7359843254089355 0.0
0.9774143695831299 0.7371892929077148 0.0
1.201690912246704 0.7367381453514099 0.0
1.447761058807373 0.7383390665054321 0.0
1.8591958284378052 0.6421071290969849 0.0
0.14080412685871124 0.6421071290969849 0.0
1.588537573814392 0.6783608794212341 0.0
0.2553686201572418 0.6221352219581604 0.0
1.7466964721679688 0.6278358101844788 0.0
0.38199201226234436 0.6273008584976196 0.0
0.5013589859008789 0.6272794008255005 0.0
0.6207823157310486 0.6272526383399963 0.0
0.7401852607727051 0.627252459526062 0.0
0.8595882654190063 0.6272523999214172 0.0
0.9701492786407471 0.6212864518165588 0.0
1.0807102918624878 0.6272523999214172 0.0
1.2001131772994995 0.6272523999214172 0.0
1.3195161819458008 0.6272523999214172 0.0
1.4488563537597656 0.6310953497886658 0.0
1.9247323274612427 0.5706554055213928 0.0
0.07526770234107971 0.5706554055213928 0.0
1.5377081632614136 0.5910930037498474 0.0
1.6566967964172363 0.5934624075889587 0.0
1.8074009418487549 0.5708622932434082 0.0
0.1940300166606903 0.5737577676773071 0.0
1.0286364555358887 0.5665481686592102 0.0
1.14803946018219 0.5665481686592102 0.0
0.9116620421409607 0.5665481686592102 0.0
1.2674424648284912 0.5665481686592102 0.0
0.7922590970993042 0.5665481686592102 0.0
0.6728560328483582 0.5665482878684998 0.0
0.5534531474113464 0.5665481686592102 0.0
1.3892061710357666 0.5727682709693909 0.0
0.43402159214019775 0.5665869116783142 0.0
0.3146642744541168 0.5667200088500977 0.0
1.8656742572784424 0.5607567429542542 0.0
0.1343258023262024 0.5607567429542542 0.0
1.5970147848129272 0.5642029047012329 0.0
1.8783670663833618 0.7786769866943359 0.0
0.12163297086954117 0.7786769866943359 0.0
1.7164177894592285 0.562579333782196 0.0
1.4776118993759155 0.5620538592338562 0.0
1.5857784748077393 0.867691159248352 0.0
0.25373148918151855 0.5588531494140625 0.0
0.9701492786407471 0.5582930445671082 0.0
1.0895521640777588 0.5582930445671082 0.0
0.8507462739944458 0.5582930445671082 0.0
1.20895516872406 0.5582930445671082 0.0
0.7313433289527893 0.5582930445671082 0.0
1.3283581733703613 0.5582930445671082 0.0
0.6119403839111328 0.5582930445671082 0.0
0.49253740906715393 0.5582930445671082 0.0
0.37313446402549744 0.5582956075668335 0.0
0.36864349246025085 0.7376502752304077 0.0
0.602456271648407 0.7355343103408813 0.0
0.8441241383552551 0.7366551756858826 0.0
1.3355978727340698 0.7366551160812378 0.0
1.0895521640777588 0.7378703355789185 0.0
0.07051979005336761 0.6486480832099915 0.0
1.9294801950454712 0.6486480832099915 0.0
1.5086064338684082 0.6743985414505005 0.0
1.6785967350006104 0.6649783849716187 0.0
1.9543375968933105 0.5452249050140381 0.0
0.04566239193081856 0.5452249050140381 0.0
1.6567095518112183 0.5496091842651367 0.0
1.53738272190094 0.5491842031478882 0.0
0.91306072473526 0.8965699672698975 0.0
1.7782752513885498 0.5446287989616394 0.0
1.4163299798965454 0.5447981357574463 0.0
0.4287482798099518 0.8945969939231873 0.0
1.2610714435577393 0.8950135707855225 0.0
0.4313095211982727 0.6832783222198486 0.0
0.31561949849128723 0.6858259439468384 0.0
1.029850721359253 0.6781684160232544 0.0
0.9082015752792358 0.6848641633987427 0.0
1.1492537260055542 0.6781684160232544 0.0
0.7886138558387756 0.678956151008606 0.0
1.2709345817565918 0.684736430644989 0.0
0.6685023903846741 0.6868807673454285 0.0
1.4007169008255005 0.6702371835708618 0.0
0.5483440160751343 0.6792802214622498 0.0
0.19808045029640198 0.6887137293815613 0.0
1.797759771347046 0.6853783130645752 0.0
0.6811949610710144 0.8757594227790833 0.0
1.0189321041107178 0.8474968671798706 0.0
0.7922950983047485 0.8446238040924072 0.0
1.3765455484390259 0.8590760827064514 0.0
1.1571698188781738 0.8478953838348389 0.0
1.8954496383666992 0.5359624624252319 0.0
1.8360060453414917 0.5359931588172913 0.0
0.10455036163330078 0.5359624624252319 0.0
0.16417928040027618 0.5353734493255615 0.0
0.5530290007591248 0.8422092199325562 0.0
0.2832632064819336 0.5367912650108337 0.0
0.22469767928123474 0.5394234657287598 0.0
0.9405550956726074 0.5357381105422974 0.0
0.9997434020042419 0.5357381105422974 0.0
1.0600273609161377 0.5365630984306335 0.0
1.1191463470458984 0.5357381105422974 0.0
0.8802711367607117 0.5365630984306335 0.0
0.8211521506309509 0.5357381105422974 0.0
1.2385493516921997 0.5357381105422974 0.0
1.179430365562439 0.5365630984306335 0.0
0.7608681321144104 0.5365630984306335 0.0
0.7017492055892944 0.5357381105422974 0.0
1.2988333702087402 0.5365630984306335 0.0
1.357560396194458 0.5390686392784119 0.0
0.5823462605476379 0.5357381105422974 0.0
0.6414651870727539 0.5365630984306335 0.0
0.5220622420310974 0.5365630984306335 0.0
0.4629422128200531 0.535739541053772 0.0
0.3435409665107727 0.5357455015182495 0.0
0.4026572108268738 0.5365669131278992 0.0
0.21006634831428528 0.8590372204780579 0.0
1.7943172454833984 0.8627070188522339 0.0
0.06134982034564018 0.7191494703292847 0.0
1.938650131225586 0.7191494703292847 0.0
1.634666085243225 0.7584379315376282 0.0
0.3355695903301239 0.8387951850891113 0.0
1.537941336631775 0.7633647918701172 0.0
1.9670078754425049 0.574067234992981 0.0
0.032992132008075714 0.574067234992981 0.0
1.6862140893936157 0.5314788222312927 0.0
1.6272135972976685 0.5317342281341553 0.0
1.5077245235443115 0.5309156775474548 0.0
1.5668202638626099 0.5316618084907532 0.0
1.7466963529586792 0.5298213958740234 0.0
1.4473658800125122 0.5297333002090454 0.0
1.804386019706726 0.5275400876998901 0.0
1.9283779859542847 0.5282225012779236 0.0
1.8656879663467407 0.5267112255096436 0.0
0.13432854413986206 0.5271331071853638 0.0
0.07162196189165115 0.5282225012779236 0.0
0.25373148918151855 0.527070939540863 0.0
0.19419340789318085 0.5297109484672546 0.0
0.31349387764930725 0.5272363424301147 0.0
0.37313446402549744 0.5270199179649353 0.0
0.4329495429992676 0.5274069309234619 0.0
0.49253740906715393 0.5270196795463562 0.0
0.5523557066917419 0.5274024605751038 0.0
1.3898069858551025 0.5277745127677917 0.0
1.3283581733703613 0.5270196795463562 0.0
0.6119403839111328 0.5270196795463562 0.0
1.2685397863388062 0.5274024605751038 0.0
0.6717586517333984 0.5274024605751038 0.0
0.7313433289527893 0.5270196795463562 0.0
1.20895516872406 0.5270196795463562 0.0
0.7911616563796997 0.5274024605751038 0.0
0.8507462739944458 0.5270196795463562 0.0
1.1491369009017944 0.5274024605751038 0.0
1.0895521640777588 0.5270196795463562 0.0
0.9105646014213562 0.5274024605751038 0.0
0.9701492786407471 0.5270196795463562 0.0
1.0297338962554932 0.5274024605751038 0.0
1.4776118993759155 0.5259945392608643 0.0
1.597015619277954 0.5255197882652283 0.0
1.7164177894592285 0.525999903678894 0.0
1.6834615468978882 0.8477573990821838 0.0
1.5822722911834717 0.6086509227752686 0.0
0.20459823310375214 0.6270732283592224 0.0
1.8037469387054443 0.6209055185317993 0.0
0.09990309923887253 0.8589919805526733 0.0
1.9000968933105469 0.8589919805526733 0.0
1.75603187084198 0.5789161324501038 0.0
0.10896337777376175 0.5982794761657715 0.0
1.8910366296768188 0.5982794761657715 0.0
1.4950518608093262 0.605266273021698 0.0
1.7049394845962524 0.6007562279701233 0.0
1.4387125968933105 0.5775743722915649 0.0
1.489302158355713 0.851039469242096 0.0
0.15732239186763763 0.5961292386054993 0.0
1.8436260223388672 0.5944437384605408 0.0
0.4399496018886566 0.6259797215461731 0.0
1.022565245628357 0.6257523894309998 0.0
[...]
POINT_DATA 348
SCALARS Psi double
LOOKUP_TABLE default
1.0878984745059221
1.0
1.0
1.076668469256637
1.087788006230878
1.0875451104726985
1.089146808444088
1.0938728055775027
1.1033510760286018
1.1418217491790552
1.0
1.0
1.0
1.0
1.0
1.0
1.0
1.0
1.0
1.0
1.0
1.1342685463948632
1.0942751242409634
1.0844750354831794
1.0798819113724032
1.0777145537983401
1.0768590541920213
1.0879812890902099
1.0867118737203696
1.084822304727304
1.08242079996128
1.0794798105856405
1.07602374795362
1.0721218737328357
1.0678672938765676
1.06338346078604
1.0587584764216091
1.0540920620728198
1.0494630468909563
1.0449565223378623
1.040624393395565
1.0364944248356243
1.0325996192880924
1.0289672844690565
1.0256109400015745
1.0225183845118482
1.0196944968263217
1.0171381906735368
1.01484486203821
1.0127905844151865
1.0109687791865207
1.0093691715629338
1.0079826246132662
1.0067887562643623
1.0057803759758304
1.0049494028548864
1.0042890027962377
1.0037866646418083
1.0034382993190765
1.0032411995659953
1.0031934442639987
1.0032914481784276
1.0035346311375268
1.003928574243369
1.0044762170590078
1.0051807818982694
1.0060462357462
1.0070859529070197
1.0083062724644185
1.0097144700031626
1.0113162605269268
1.0131345528458298
1.0151740580343667
1.0174309700493602
1.0199346785756118
1.0226764930901477
1.0256555034855526
1.0288722148436158
1.0323240682515757
1.035990389185017
1.0398395377927836
1.0438338440270736
1.0479255363452362
1.052054303256226
1.0561439082955932
1.0601072579917952
1.0638381740187908
1.0672402127748157
1.0702047587100538
1.0726291927367706
1.0744756476862944
1.0757491274576823
1.0764613444357738
1.0467867111097464
1.0518854974995304
1.0201199545674668
1.0058086488405245
1.00167308907323
1.0036439487144646
1.0139159671409275
1.0733682570847183
1.0821127466395355
1.0311074484642149
1.0635343109924535
1.0566896057905415
1.0425530035947304
1.0268241535057547
1.0156243623884158
1.0084497788026172
1.0043633587493623
1.002845786771681
1.0030421303403585
1.0054010944040004
1.0102988518924463
1.0190457071421446
1.0762815970208335
1.085676545045643
1.0292513434324881
1.0445295116974986
1.0659083918864312
1.0740341916067169
1.0030690600136976
1.0045811566254812
1.0038189305409813
1.0086117114269162
1.0070315646224728
1.0132384594371584
1.0232041804416916
1.0157540903958484
1.0374860201990463
1.0554784179709253
1.0719808302860043
1.0811616401265023
1.0372069616075064
1.0782438794756324
1.0863580194891462
1.0536728172764926
1.0235734735172641
1.0130768691662624
1.0652546100949487
1.0031970524730127
1.0035798881935643
1.0051657431279089
1.0063427129972866
1.0098477968555466
1.011873277050545
1.0179114426599627
1.0300947466121229
1.0464794892479887
1.0356947694515581
1.0123546184430505
1.0031387426964242
1.0079927420496275
1.0019375177825474
1.0902638557374305
1.08078431787281
1.0226367967517482
1.0445797931518341
1.0766486529924655
1.0869297742305164
1.0454993564028163
1.0301804044160823
1.0004324779457145
1.0622233994945947
1.0182593122279577
1.0105238643737668
1.0014801910947342
1.0321300518410081
1.0494026491767945
1.0022866924228706
1.002832583244752
1.0035487593324013
1.00561848171338
1.0068375194662311
1.0105844966847422
1.0140169693415866
1.0195846246205806
1.0716959174673117
1.0635402041394317
1.0033690888747586
1.0005515289266016
1.0019091530081186
1.0044737988317907
1.0011770794818946
1.0738826786534916
1.0689326686853873
1.083705853209869
1.0778577788647925
1.0080518454116592
1.0609556648015996
1.0698224662033173
1.0035449095528772
1.0031568981133818
1.003351435571072
1.004128349162187
1.0045480023594857
1.0061844091927716
1.0075849559331442
1.0055370177879106
1.0085721333130864
1.0117220718823783
1.0104033157148806
1.0139270178227928
1.0208731770420267
1.0158334216377227
1.0270743050415645
1.0342521732263186
1.051505429193884
1.0425620823574002
1.0395567065611537
1.0362112339411211
1.0980435920039144
1.0884747659977296
1.0302226293673067
1.0266177484462187
1.0193764487887322
1.0777981806244354
1.0869960836179295
1.0498144934644715
1.041708105056083
1.0271153359102425
1.0339262736258121
1.0581499446394083
1.0211277923836952
1.0654241818171024
1.075478572049115
1.0715896555247828
1.0810291667557064
1.0859076136182313
1.0655604214028829
1.0740717861641023
1.0562842958538796
1.0470323712778842
1.038362659914787
1.0306044752124575
1.0238980839152614
1.016320485811623
1.012123536430583
1.0182792587005498
1.0089275203721777
1.0137006778721847
1.0100775781267821
1.0065003902887608
1.0073102832350662
1.005304971057275
1.0047733073656628
1.0036843055083051
1.0039874088494396
1.0032948803011428
1.0031996899315205
1.0240373575828994
1.0377827111537739
1.054027665597166
1.0247321279254582
1.0340237284794997
1.072097795405379
1.0654174776673107
1.0766798885028095
1.0694555700113662
1.0590427058656948
1.0841870038584478
1.0751055971259427
1.024234064388059
1.0512398238739697
1.0196470454202293
1.0091319940554673
1.079060529425822
1.0704032401573607
1.0344440063442957
1.0027017717232882
1.0033116066653613
1.0039833364085753
1.0061442472404099
1.007590352498457
1.0117379897082424
1.0131967721968629
1.0208948219763407
1.0530712580073514
1.0269044500744018
1.0769456125866168
1.0853521982253425
1.0490327200726088
1.0329780828114206
1.041576912820199
1.0531510677116207
1.0023830257252768
1.0026693188057276
1.0039418911336477
1.0050219755394467
1.0079147626328102
1.0097441058479248
1.0144741786151463
1.0255108295520226
1.0411378679621541
1.1079720339973003
1.0992860060360756
1.0766662395483415
1.0879553704915956
1.0607630654084124
1.0029734870243034
1.0032515757368856
1.0031706622359369
1.0612209313493612
1.003752708678462
1.004377022242905
1.0056003462581156
1.0053642798870406
1.0069008653554927
1.00834466931841
1.0107080771129582
1.0101583380857
1.0127990591731149
1.015462051840646
1.0192794234283074
1.0265465388355413
1.068074896958596
1.0320716499156906
1.0420100803880317
1.0488854790191875
1.0174362726640067
1.0457873258268302
1.0304818268431841
1.038647165776139
1.0014570165754402
1.021758311028916
1.038965910382206
1.0837777927920327
1.0744046642618945
1.0002569121773368
1.0282062276242903
1.0692428658326367
1.0781093475385592
1.00394019568537
1.087521509319079
1.0771331067684797
1.0872136409914501
1.078325113484058
1.069063875364849
1.0624278431759788
1.062006016573447
1.018597516990546
1.001053800772142
1.0163453081958262
1.006591681752713
1.0761908357874077
1.087210488862871
1.0528187222834895
1.046971093893172

SCALARS Omega double
LOOKUP_TABLE default
4.100276591396025
-10.327730795436135
-14.268649563397748
0.13217857057054277
4.4925154264699865
-2.6837945533081404
-4.4735576606348335
3.542292223091535
1.0314781535196014
20.84264546033726
-8.188675201154108
-0.40947252232517617
-0.8985275653939712
-0.2342139594276656
-0.11369097867140879
-0.030612111190218918
-0.11116900932419282
-0.18643504131185779
-0.6569892800265217
-0.6110339256923075
-6.115745385050898
17.943670585109533
3.512463678239262
-1.0379081270119275
0.14534828365017088
0.03351225769657364
-0.32203140248115947
2.111361729825988
1.091836779170506
0.714302174089767
0.5849518485731597
0.5327239424930539
0.5070780229781611
0.4781901953453794
0.44153688695111604
0.39741178056711035
0.34773268551743197
0.29624639566453614
0.24497892024276763
0.19618313349198022
0.1508090029246137
0.10952048225670531
0.07261347350639791
0.04033345357912865
0.012569702993088714
-0.011155351329582935
-0.031081819755354997
-0.04752459062711467
-0.06081139786221048
-0.0715413250942382
-0.08001355261642572
-0.08658310712087403
-0.09151389784999604
-0.09520530149861853
-0.0978514933748387
-0.09967300325199685
-0.10081314043691518
-0.1014638331296402
-0.10170958672120309
-0.10162686877438366
-0.1012479609365794
-0.10059290948863417
-0.09964829274356778
-0.09834303166584846
-0.09661228012447837
-0.09434272394968574
-0.09142625853745229
-0.08763222668431363
-0.08279843107413305
-0.0766884452308047
-0.0690952706420016
-0.05954731729103444
-0.04780290324996794
-0.03366497388546373
-0.016472751712209042
0.003910499114034805
0.02774308170472667
0.05530912053745329
0.08677693338046888
0.12203690492204061
0.1605761313608329
0.2016896050434706
0.24401350578081038
0.2859350888697241
0.3247869460039389
0.357601370093149
0.3795471549340286
0.3852480049243448
0.3706556219671557
0.3300023908604491
0.26103410293980894
0.16510919313835973
0.06635078647399102
0.3151066787097379
0.3393627792575651
-0.11646412749211972
-0.13091185667443112
-0.1057054424412894
-0.11366535237418159
-0.12385496956468815
0.7178328075969512
0.8448250621505065
0.04691930011486571
0.46988162820801993
0.4081247471793413
0.1669496075582901
0.0028975471754250763
-0.07395212630508854
-0.10007944145244947
-0.10519634428525698
-0.10385548595556329
-0.10230780758085041
-0.09843631749301555
-0.08460653283898668
-0.040685624540587294
0.30650981069099975
0.0948899177556852
0.051862508429749876
0.21730105434218022
0.4399174100869619
0.5280590909253365
-0.10168073739804294
-0.09715105264443519
-0.10234065547100067
-0.08372762102510918
-0.09659159909592357
-0.07320444395688375
-0.01117193271889279
-0.048931336381649065
0.11627850663337902
0.320747280716607
0.4093844304730068
0.4908519705421493
0.13352109534941692
2.249060120061602
2.527400928682854
0.31560108615765875
0.007244176733273444
-0.31878313544488457
0.4342894838820409
-0.10231092622108674
-0.09981692806405655
-0.1003616119158904
-0.09157790155478276
-0.0871125927520295
-0.06873062135341108
-0.046554572856951734
0.046334058929396536
0.21351020278404542
0.04064205045433857
-0.1434431663938942
-0.11680355787947226
-0.1234202943551225
-0.1061934669341773
0.96762723286099
0.5747828401966023
-0.03102886952373687
0.2379945714029907
0.14049951445132064
0.4503874092277613
0.22190937382062725
0.06523625353621676
-0.09857906644498345
0.38752322420552004
-0.03006943443441099
-0.4188839881074069
-0.1508136577813783
0.03255470394298957
0.27537492140950615
-0.10461616328969776
-0.10807518480278921
-0.10488149130466784
-0.11268902260609306
-0.10497213967851973
-0.11310599821853816
-0.0819065312013166
-0.0732426340540372
0.8361155033640578
0.6923071888276313
-0.20088340153448242
-0.09796264604998528
-0.1424951330113963
-0.20891313998482952
-0.11464430760700137
0.32160350023332196
0.39908267500530054
0.5432661528300703
0.518151606135918
-0.30164007038486906
0.37625886709557954
0.4676878473958691
-0.10188407620136357
-0.10167070349686369
-0.10038421079556101
-0.09788440007489356
-0.10072930314616349
-0.09731626898273966
-0.08620622829729342
-0.09350530320949016
-0.09023276549149212
-0.07756313163718369
-0.07426981170368055
-0.056273975081853306
-0.024308275533483272
-0.056498592003425746
0.023020098190726195
0.0869776229382207
0.26890621586202595
0.17062922353080592
-0.6191909294917654
-0.5147470841169265
2.32944522511883
1.9777754326561985
-0.011509735355373906
-0.2381694070022999
-0.12062838988453727
0.16690677657362477
-1.0217322041322625
0.26552628033286674
0.18017280045769152
0.039206147176569534
0.1014834852730356
0.34662514697211677
-0.008566668969857737
0.3920916325695907
0.21860644186067282
0.3652351841191935
0.5338230402323539
0.7124939981821647
0.4234154728675625
0.4972714401490366
0.32227161888162503
0.2188035713684626
0.12752218731499096
0.05381235952117583
-0.0016606519172518673
-0.04142765044564584
-0.06554031119323254
-0.04122242055253197
-0.08056138243522706
-0.06760899316182346
-0.08431587013587331
-0.09007820841112255
-0.09403104486061732
-0.09919241075173682
-0.09582606824290928
-0.09921886260678586
-0.10139610467727131
-0.10184407580575103
-0.10108332295891317
0.013962250849881765
0.13979943912240073
0.30760252635709107
-0.2638912731573912
0.09725913339108186
0.6218180596335473
0.5337798651870457
2.9039953778016625
2.1556482072658576
0.385646020745416
0.4315959595357304
0.4734073822376078
0.005161758004358689
0.30623706254318733
-0.02441038489752741
-0.2810106959149826
0.5921227818732749
0.508589525022183
0.07552629316157526
-0.10322296887731366
-0.10472893921779716
-0.10082993819186573
-0.10385718316141009
-0.09299651549749344
-0.08998797085806928
-0.07147385155957113
-0.04182883895740595
0.31016150189177394
0.03413599037442218
1.2523254612617645
1.4785748227905184
0.26516210034468574
0.09036934035609447
0.1803309547058392
0.41361737900017465
-0.10537196689889641
-0.10433475528592429
-0.11016426596226862
-0.10444550632403155
-0.1120011600157356
-0.097727469477774
-0.09915262606974301
-0.02849004325168986
0.14423106337712208
5.598342302591962
5.40333102162908
-0.012855761300117213
2.097569030710978
0.4888528703124226
-0.10265928973092087
-0.1031238363448059
-0.10135194605798303
0.40199689968105085
-0.099838055384787
-0.10270297647368268
-0.10100566888395453
-0.0958704840494679
-0.09124247914476422
-0.09487819303128278
-0.08672286982800714
-0.07944071603574343
-0.06713690872751692
-0.06531830849045017
-0.04228617850092916
0.010999425356936899
0.48867830817112995
0.06039491839183061
0.16287202191328412
0.24370900185570057
-0.06902117037217041
0.2226250902267948
0.0693833280335244
0.14914127614684364
-0.10985028243038802
-0.16829937846686321
0.15224910600440128
0.3821709177778823
0.37518986524013453
-0.08900149604138904
0.03241088177723375
0.44000536699573195
0.5321896093696793
-0.13409298090490065
0.46689768371820545
0.01121978928102523
-0.5101373601020448
0.3408516063694637
1.0203185730901667
0.9271598518390883
0.37332386665025474
-0.026222501830747747
-0.17256911002196945
-0.05296720420536015
-0.16617295466227905
0.11856080318460388
1.2482118262424524
0.5729328676153972
-1.2167721124874584

SCALARS Vx_analytic double
LOOKUP_TABLE default
4.100276591396025
-10.327730795436135
-14.268649563397748
0.1321063796461327
4.4925154264699865
-2.6837945533081404
-4.4735576606348335
3.542292223091535
1.0314781535196014
20.84264546033726
-8.188675201154108
-0.40947252232517617
-0.8985275653939712
-0.2342139594276656
-0.11369097867140879
-0.030612111190218918
-0.11116900932419282
-0.18643504131185779
-0.6569892800265215
-0.6110339256923075
-6.115745385050898
17.943670585109533
3.5132646958975693
-1.0157705221644138
0.1475555398778134
0.03451969899801807
-0.32007619909145
2.111361729825988
1.091836779170506
0.714302174089767
0.5849518485731597
0.5327239424930539
0.5070780229781611
0.4781901953453794
0.44153688695111604
0.39741178056711035
0.34773268551743197
0.29624639566453614
0.24497892024276763
0.19618313349198022
0.1508090029246137
0.10952048225670531
0.07261347350639791
0.04033345357912865
0.012569702993088714
-0.011155351329582935
-0.031081819755354997
-0.04752459062711467
-0.06081139786221048
-0.0715413250942382
-0.08001355261642572
-0.08658310712087403
-0.09151389784999604
-0.09520530149861853
-0.0978514933748387
-0.09967300325199685
-0.10081314043691518
-0.1014638331296402
-0.10170958672120309
-0.10162686877438366
-0.10124782765055246
-0.10059294204194921
-0.09964845504938262
-0.09834350190110207
-0.09661312131879714
-0.09434451871860836
-0.09142861870458731
-0.08763597043769088
-0.08280334278890952
-0.07669661379637871
-0.06910496134825447
-0.059561448513910514
-0.04782298754005855
-0.03367246039641992
-0.016485391452380215
0.0038884095097771174
0.02772151838471168
0.05529747411442642
0.08676827989982372
0.12202034388196006
0.16057453055738888
0.2017095464310311
0.24406643450331023
0.2860015838006492
0.3248965446907596
0.3577128693744919
0.37972785692918287
0.38560071590677647
0.37102831606703496
0.3304074131022695
0.26136830543624223
0.16535185060563726
0.06630766750183488
0.3072890282179582
0.33717061452093205
-0.11573714656013345
-0.1307994394801333
-0.10570535512391901
-0.1137278022994898
-0.1245635302413807
0.7269997387825374
0.8347617254271427
0.04600727050653333
0.46799101154748707
0.4105073469605888
0.16692146289100512
0.0031366688239059318
-0.07378379845270752
-0.10001567391903493
-0.10518127231499351
-0.10385296486822365
-0.10231052803076887
-0.09846832164148968
-0.08473012843988743
-0.04101671792383851
0.30863173663669813
0.10164156815116877
0.05153787112985915
0.2175443433717809
0.4422804079349939
0.5270414712544271
-0.10168036655234725
-0.09715932322660174
-0.10233728464411804
-0.08377000668667647
-0.09657556248298499
-0.07315791420022077
-0.011102327663137119
-0.04907507932942547
0.11625277765605307
0.3202582298912333
0.4115959586539189
0.4921555331208926
0.13340677181581329
2.256243746621553
2.465884214837707
0.31620104478253563
0.007045941752137853
-0.3199528326109759
0.43353010341349996
-0.10230954769970359
-0.099818840264722
-0.10035371804727652
-0.09159326976904526
-0.08708221543359851
-0.0687861153453061
-0.04648330343857881
0.04641118694696167
0.21338885459221116
0.04151052174497755
-0.14299730792784113
-0.11677288635864197
-0.12376119510985828
-0.10620445994409171
0.8926160215205654
0.5831067609988504
-0.031782754694615015
0.23793720672138574
0.14188665745959936
0.459226106106792
0.22203848098081214
0.06507796699727572
-0.09857956794860451
0.3884750777202246
-0.030156942438431873
-0.41751390884503153
-0.15089691667409116
0.03283307489491699
0.2746372744133593
-0.10461649295415189
-0.10806434632249416
-0.1049061019315695
-0.11263371909575697
-0.10508948353650198
-0.11291175052287457
-0.0822930062166051
-0.07287632478518631
0.828237082662919
0.6979119990900304
-0.20066822435965248
-0.09797116703090028
-0.14243482955313497
-0.2098549195346861
-0.11468425977837911
0.3229199860491194
0.40046616035986776
0.5455847679292118
0.5182087427677907
-0.3007930965710655
0.3759623336509482
0.46729198944470124
-0.10188333045339258
-0.10167020731103209
-0.10038502890796568
-0.097888238546757
-0.10072764797374202
-0.0973125372159145
-0.08622901541256638
-0.09351735548255238
-0.09022641066298927
-0.07755275575139361
-0.07432039420404417
-0.05635099744409936
-0.02429735123511995
-0.05648791947704425
0.02301212412060508
0.08694559797827989
0.26873183033780595
0.17053225418635087
-0.6002055555256519
-0.5404004018209301
2.3324891610305714
1.9952133237032759
-0.01425735825523208
-0.23526584133959536
-0.1219607855521299
0.1688958090964258
-1.0064285288164163
0.2657657157797497
0.18013718698293252
0.039050865948650246
0.10135564260066196
0.34736219757448716
-0.008684319444194621
0.39328239635321466
0.21971500681167774
0.36633678585635854
0.5347506766809602
0.7167242441777041
0.42311179378165686
0.4970539901842072
0.3221079645654378
0.21875178329699468
0.12751921381715212
0.053843932016246154
-0.0016322894206638324
-0.04151191155064741
-0.06558852477115278
-0.041193178599956914
-0.08058918605330895
-0.06759113277234967
-0.08430334731522064
-0.09009150162918592
-0.094024891910733
-0.09918920923254947
-0.09583184572165084
-0.09922064608285092
-0.10139490965510523
-0.10184361020515252
-0.10108341549804783
0.013839356920070605
0.1397075657324366
0.3079784830518931
-0.26982869697736783
0.09687450540464537
0.6181302600909624
0.537727513152472
2.803641245253299
1.9883210013783301
0.38716987918864076
0.42802012396651024
0.4775215942838491
0.004780602870159212
0.3069585322807902
-0.024649601427369328
-0.28242466287451806
0.5891893005315345
0.5124021151991134
0.07569952319076258
-0.10322246035633995
-0.10472312727565941
-0.10084273201007532
-0.10382419512380811
-0.09306743180288587
-0.08988417115473073
-0.07166214313221381
-0.04160908275382541
0.30944238264525936
0.033955124038540584
1.265000153519111
1.4602339633012007
0.26559395215649384
0.09019050064835034
0.1803862359396034
0.4148559104648534
-0.10536896235447929
-0.10433930005250218
-0.11013665881849584
-0.10448760294828156
-0.11189194719586837
-0.09790551172982817
-0.09883423321629006
-0.028031205036257594
0.1441547257621776
5.320999423523951
5.209113620693684
-0.012093327464054341
2.094004461102228
0.48593036170384585
-0.10265782145731348
-0.1031214345326257
-0.10135356154035828
0.40109114383529515
-0.0998434218409839
-0.10269515363958007
-0.10099102635381375
-0.09589104254706386
-0.09127527610625219
-0.09484443757977604
-0.08667060521092532
-0.07952305266772794
-0.06724861035058598
-0.06522696170436156
-0.042173116022290534
0.011130154359656728
0.48724962629618873
0.060495842167758114
0.1628178051383011
0.24343739591994817
-0.06948058667620627