# vtk DataFile Version 1.0
2D Simulation C++
ASCII
DATASET UNSTRUCTURED_GRID
FIELD FieldData 1
NODES 1 2 int
348 601

POINTS 348 double
0.0 0.5 0.0
0.0 1.0 0.0
2.0 1.0 0.0
2.0 0.5 0.0
0.0 0.528801679611206 0.0
0.0 0.564507782459259 0.0
0.0 0.6110168099403381 0.0
0.0 0.6721802353858948 0.0
0.0 0.7528436183929443 0.0
0.0 0.8593378663063049 0.0
0.16666941344738007 1.0 0.0
0.3333356976509094 1.0 0.0
0.5000020265579224 1.0 0.0
0.6666678786277771 1.0 0.0
0.8333337306976318 1.0 0.0
1.0 1.0 0.0
1.1666662693023682 1.0 0.0
1.3333321809768677 1.0 0.0
1.4999979734420776 1.0 0.0
1.6666642427444458 1.0 0.0
1.8333306312561035 1.0 0.0
2.0 0.8593378663063049 0.0
2.0 0.7528436183929443 0.0
2.0 0.6721802353858948 0.0
2.0 0.6110168099403381 0.0
2.0 0.564507782459259 0.0
2.0 0.528801679611206 0.0
0.029850948601961136 0.5 0.0
0.05970168858766556 0.5 0.0
0.08955242484807968 0.5 0.0
0.1194031685590744 0.5 0.0
0.14925390481948853 0.5 0.0
0.17910465598106384 0.5 0.0
0.20895539224147797 0.5 0.0
0.2388061285018921 0.5 0.0
0.2686568796634674 0.5 0.0
0.29850760102272034 0.5 0.0
0.32835835218429565 0.5 0.0
0.35820910334587097 0.5 0.0
0.3880598247051239 0.5 0.0
0.4179105758666992 0.5 0.0
0.44776129722595215 0.5 0.0
0.47761204838752747 0.5 0.0
0.5074627995491028 0.5 0.0
0.5373135209083557 0.5 0.0
0.5671642422676086 0.5 0.0
0.5970150232315063 0.5 0.0
0.6268657445907593 0.5 0.0
0.6567164659500122 0.5 0.0
0.6865672469139099 0.5 0.0
0.7164179682731628 0.5 0.0
0.7462686896324158 0.5 0.0
0.7761194705963135 0.5 0.0
0.8059701919555664 0.5 0.0
0.8358209133148193 0.5 0.0
0.865671694278717 0.5 0.0
0.89552241563797 0.5 0.0
0.9253731369972229 0.5 0.0
0.9552239179611206 0.5 0.0
0.9850746393203735 0.5 0.0
1.0149253606796265 0.5 0.0
1.0447760820388794 0.5 0.0
1.0746268033981323 0.5 0.0
1.1044776439666748 0.5 0.0
1.1343283653259277 0.5 0.0
1.1641790866851807 0.5 0.0
1.1940298080444336 0.5 0.0
1.2238805294036865 0.5 0.0
1.2537312507629395 0.5 0.0
1.2835819721221924 0.5 0.0
1.3134328126907349 0.5 0.0
1.3432835340499878 0.5 0.0
1.3731342554092407 0.5 0.0
1.4029849767684937 0.5 0.0
1.4328356981277466 0.5 0.0
1.4626864194869995 0.5 0.0
1.492537260055542 0.5 0.0
1.522387981414795 0.5 0.0
1.5522387027740479 0.5 0.0
1.5820894241333008 0.5 0.0
1.6119401454925537 0.5 0.0
1.6417908668518066 0.5 0.0
1.6716417074203491 0.5 0.0
1.701492428779602 0.5 0.0
1.731343150138855 0.5 0.0
1.761193871498108 0.5 0.0
1.7910445928573608 0.5 0.0
1.8208953142166138 0.5 0.0
1.8507460355758667 0.5 0.0
1.8805968761444092 0.5 0.0
1.910447597503662 0.5 0.0
1.940298318862915 0.5 0.0
1.970149040222168 0.5 0.0
1.7358819246292114 0.7499510645866394 0.0
0.2656642198562622 0.7486277222633362 0.0
0.49981194734573364 0.737183690071106 0.0
0.74151611328125 0.7359843254089355 0.0
0.9774143695831299 0.7371892929077148 0.0
1.201690912246704 0.7367381453514099 0.0
1.447761058807373 0.7383390665054321 0.0
1.8591958284378052 0.6421071290969849 0.0
0.14080412685871124 0.6421071290969849 0.0
1.588537573814392 0.6783608794212341 0.0
0.2553686201572418 0.6221352219581604 0.0
1.7466964721679688 0.6278358101844788 0.0
0.38199201226234436 0.6273008584976196 0.0
0.5013589859008789 0.6272794008255005 0.0
0.6207823157310486 0.6272526383399963 0.0
0.7401852607727051 0.627252459526062 0.0
0.8595882654190063 0.6272523999214172 0.0
0.9701492786407471 0.6212864518165588 0.0
1.0807102918624878 0.6272523999214172 0.0
1.2001131772994995 0.6272523999214172 0.0
1.3195161819458008 0.6272523999214172 0.0
1.4488563537597656 0.6310953497886658 0.0
1.9247323274612427 0.5706554055213928 0.0
0.07526770234107971 0.5706554055213928 0.0
1.5377081632614136 0.5910930037498474 0.0
1.6566967964172363 0.5934624075889587 0.0
1.8074009418487549 0.5708622932434082 0.0
0.1940300166606903 0.5737577676773071 0.0
1.0286364555358887 0.5665481686592102 0.0
1.14803946018219 0.5665481686592102 0.0
0.9116620421409607 0.5665481686592102 0.0
1.2674424648284912 0.5665481686592102 0.0
0.7922590970993042 0.5665481686592102 0.0
0.6728560328483582 0.5665482878684998 0.0
0.5534531474113464 0.5665481686592102 0.0
1.3892061710357666 0.5727682709693909 0.0
0.43402159214019775 0.5665869116783142 0.0
0.3146642744541168 0.5667200088500977 0.0
1.8656742572784424 0.5607567429542542 0.0
0.1343258023262024 0.5607567429542542 0.0
1.5970147848129272 0.5642029047012329 0.0
1.8783670663833618 0.7786769866943359 0.0
0.12163297086954117 0.7786769866943359 0.0
1.7164177894592285 0.562579333782196 0.0
1.4776118993759155 0.5620538592338562 0.0
1.5857784748077393 0.867691159248352 0.0
0.25373148918151855 0.5588531494140625 0.0
0.9701492786407471 0.5582930445671082 0.0
1.0895521640777588 0.5582930445671082 0.0
0.8507462739944458 0.5582930445671082 0.0
1.20895516872406 0.5582930445671082 0.0
0.7313433289527893 0.5582930445671082 0.0
1.3283581733703613 0.5582930445671082 0.0
0.6119403839111328 0.5582930445671082 0.0
0.49253740906715393 0.5582930445671082 0.0
0.37313446402549744 0.5582956075668335 0.0
0.36864349246025085 0.7376502752304077 0.0
0.602456271648407 0.7355343103408813 0.0
0.8441241383552551 0.7366551756858826 0.0
1.3355978727340698 0.7366551160812378 0.0
1.0895521640777588 0.7378703355789185 0.0
0.07051979005336761 0.6486480832099915 0.0
1.9294801950454712 0.6486480832099915 0.0
1.5086064338684082 0.6743985414505005 0.0
1.6785967350006104 0.6649783849716187 0.0
1.9543375968933105 0.5452249050140381 0.0
0.04566239193081856 0.5452249050140381 0.0
1.6567095518112183 0.5496091842651367 0.0
1.53738272190094 0.5491842031478882 0.0
0.91306072473526 0.8965699672698975 0.0
1.7782752513885498 0.5446287989616394 0.0
1.4163299798965454 0.5447981357574463 0.0
0.4287482798099518 0.8945969939231873 0.0
1.2610714435577393 0.8950135707855225 0.0
0.4313095211982727 0.6832783222198486 0.0
0.31561949849128723 0.6858259439468384 0.0
1.029850721359253 0.6781684160232544 0.0
0.9082015752792358 0.6848641633987427 0.0
1.1492537260055542 0.6781684160232544 0.0
0.7886138558387756 0.678956151008606 0.0
1.2709345817565918 0.684736430644989 0.0
0.6685023903846741 0.6868807673454285 0.0
1.4007169008255005 0.6702371835708618 0.0
0.5483440160751343 0.6792802214622498 0.0
0.19808045029640198 0.6887137293815613 0.0
1.797759771347046 0.6853783130645752 0.0
0.6811949610710144 0.8757594227790833 0.0
1.0189321041107178 0.8474968671798706 0.0
0.7922950983047485 0.8446238040924072 0.0
1.3765455484390259 0.8590760827064514 0.0
1.1571698188781738 0.8478953838348389 0.0
1.8954496383666992 0.5359624624252319 0.0
1.8360060453414917 0.5359931588172913 0.0
0.10455036163330078 0.5359624624252319 0.0
0.16417928040027618 0.5353734493255615 0.0
0.5530290007591248 0.8422092199325562 0.0
0.2832632064819336 0.5367912650108337 0.0
0.22469767928123474 0.5394234657287598 0.0
0.9405550956726074 0.5357381105422974 0.0
0.9997434020042419 0.5357381105422974 0.0
1.0600273609161377 0.5365630984306335 0.0
1.1191463470458984 0.5357381105422974 0.0
0.8802711367607117 0.5365630984306335 0.0
0.8211521506309509 0.5357381105422974 0.0
1.2385493516921997 0.5357381105422974 0.0
1.179430365562439 0.5365630984306335 0.0
0.7608681321144104 0.5365630984306335 0.0
0.7017492055892944 0.5357381105422974 0.0
1.2988333702087402 0.5365630984306335 0.0
1.357560396194458 0.5390686392784119 0.0
0.5823462605476379 0.5357381105422974 0.0
0.6414651870727539 0.5365630984306335 0.0
0.5220622420310974 0.5365630984306335 0.0
0.4629422128200531 0.535739541053772 0.0
0.3435409665107727 0.5357455015182495 0.0
0.4026572108268738 0.5365669131278992 0.0
0.21006634831428528 0.8590372204780579 0.0
1.7943172454833984 0.8627070188522339 0.0
0.06134982034564018 0.7191494703292847 0.0
1.938650131225586 0.7191494703292847 0.0
1.634666085243225 0.7584379315376282 0.0
0.3355695903301239 0.8387951850891113 0.0
1.537941336631775 0.7633647918701172 0.0
1.9670078754425049 0.574067234992981 0.0
0.032992132008075714 0.574067234992981 0.0
1.6862140893936157 0.5314788222312927 0.0
1.6272135972976685 0.5317342281341553 0.0
1.5077245235443115 0.5309156775474548 0.0
1.5668202638626099 0.5316618084907532 0.0
1.7466963529586792 0.5298213958740234 0.0
1.4473658800125122 0.5297333002090454 0.0
1.804386019706726 0.5275400876998901 0.0
1.9283779859542847 0.5282225012779236 0.0
1.8656879663467407 0.5267112255096436 0.0
0.13432854413986206 0.5271331071853638 0.0
0.07162196189165115 0.5282225012779236 0.0
0.25373148918151855 0.527070939540863 0.0
0.19419340789318085 0.5297109484672546 0.0
0.31349387764930725 0.5272363424301147 0.0
0.37313446402549744 0.5270199179649353 0.0
0.4329495429992676 0.5274069309234619 0.0
0.49253740906715393 0.5270196795463562 0.0
0.5523557066917419 0.5274024605751038 0.0
1.3898069858551025 0.5277745127677917 0.0
1.3283581733703613 0.5270196795463562 0.0
0.6119403839111328 0.5270196795463562 0.0
1.2685397863388062 0.5274024605751038 0.0
0.6717586517333984 0.5274024605751038 0.0
0.7313433289527893 0.5270196795463562 0.0
1.20895516872406 0.5270196795463562 0.0
0.7911616563796997 0.5274024605751038 0.0
0.8507462739944458 0.5270196795463562 0.0
1.1491369009017944 0.5274024605751038 0.0
1.0895521640777588 0.5270196795463562 0.0
0.9105646014213562 0.5274024605751038 0.0
0.9701492786407471 0.5270196795463562 0.0
1.0297338962554932 0.5274024605751038 0.0
1.4776118993759155 0.5259945392608643 0.0
1.597015619277954 0.5255197882652283 0.0
1.7164177894592285 0.525999903678894 0.0
1.6834615468978882 0.8477573990821838 0.0
1.5822722911834717 0.6086509227752686 0.0
0.20459823310375214 0.6270732283592224 0.0
1.8037469387054443 0.6209055185317993 0.0
0.09990309923887253 0.8589919805526733 0.0
1.9000968933105469 0.8589919805526733 0.0
1.75603187084198 0.5789161324501038 0.0
0.10896337777376175 0.5982794761657715 0.0
1.8910366296768188 0.5982794761657715 0.0
1.4950518608093262 0.605266273021698 0.0
1.7049394845962524 0.6007562279701233 0.0
1.4387125968933105 0.5775743722915649 0.0
1.489302158355713 0.851039469242096 0.0
0.15732239186763763 0.5961292386054993 0.0
1.8436260223388672 0.5944437384605408 0.0
0.4399496018886566 0.6259797215461731 0.0
1.022565245628357 0.6257523894309998 0.0
[...]
POINT_DATA 348
SCALARS Psi double
LOOKUP_TABLE default
1.087898474505917
1.0
1.0
1.0766684692566442
1.087788006230873
1.0875451104726934
1.0891468084440838
1.0938728055774993
1.1033510760286
1.1418217491790548
1.0
1.0
1.0
1.0
1.0
1.0
1.0
1.0
1.0
1.0
1.0
1.1342685463948647
1.094275124240967
1.0844750354831834
1.079881911372408
1.0777145537983466
1.0768590541920282
1.0879812890902048
1.0867118737203647
1.0848223047272993
1.0824207999612758
1.079479810585637
1.0760237479536168
1.0721218737328329
1.0678672938765648
1.0633834607860373
1.0587584764216065
1.0540920620728171
1.0494630468909536
1.0449565223378596
1.0406243933955621
1.0364944248356216
1.03259961928809
1.0289672844690543
1.0256109400015725
1.0225183845118464
1.0196944968263202
1.0171381906735353
1.0148448620382087
1.0127905844151852
1.0109687791865196
1.0093691715629325
1.0079826246132648
1.006788756264361
1.0057803759758288
1.004949402854885
1.0042890027962368
1.0037866646418072
1.0034382993190751
1.003241199565994
1.0031934442639974
1.0032914481784265
1.0035346311375257
1.003928574243368
1.0044762170590071
1.0051807818982692
1.0060462357461997
1.0070859529070195
1.0083062724644183
1.0097144700031624
1.0113162605269266
1.0131345528458295
1.0151740580343662
1.0174309700493598
1.0199346785756118
1.022676493090148
1.0256555034855532
1.0288722148436167
1.032324068251577
1.0359903891850186
1.0398395377927854
1.0438338440270762
1.0479255363452393
1.0520543032562295
1.056143908295597
1.0601072579917992
1.0638381740187954
1.0672402127748208
1.0702047587100592
1.0726291927367764
1.0744756476863007
1.0757491274576887
1.0764613444357807
1.0467867111097482
1.0518854974995289
1.0201199545674657
1.0058086488405236
1.0016730890732293
1.0036439487144646
1.0139159671409284
1.0733682570847223
1.0821127466395324
1.0311074484642164
1.063534310992451
1.0566896057905448
1.0425530035947284
1.0268241535057532
1.0156243623884142
1.008449778802616
1.0043633587493614
1.0028457867716798
1.0030421303403578
1.0054010944040002
1.0102988518924463
1.0190457071421453
1.0762815970208393
1.0856765450456385
1.029251343432489
1.044529511697501
1.0659083918864356
1.074034191606714
1.0030690600136964
1.0045811566254808
1.00381893054098
1.0086117114269162
1.0070315646224712
1.0132384594371568
1.0232041804416898
1.0157540903958484
1.037486020199044
1.055478417970923
1.07198083028601
1.0811616401264985
1.037206961607508
1.0782438794756348
1.086358019489145
1.053672817276496
1.0235734735172648
1.0130768691662628
1.065254610094946
1.0031970524730116
1.0035798881935634
1.0051657431279075
1.0063427129972862
1.009847796855545
1.0118732770505448
1.0179114426599611
1.0300947466121206
1.046479489247986
1.0356947694515566
1.0123546184430494
1.0031387426964236
1.007992742049628
1.0019375177825471
1.090263855737427
1.0807843178728143
1.0226367967517493
1.0445797931518364
1.0766486529924721
1.0869297742305115
1.045499356402819
1.0301804044160834
1.0004324779457143
1.0622233994945989
1.018259312227958
1.0105238643737664
1.0014801910947344
1.0321300518410064
1.0494026491767927
1.0022866924228697
1.0028325832447513
1.0035487593324008
1.005618481713379
1.0068375194662311
1.010584496684741
1.0140169693415872
1.0195846246205793
1.0716959174673095
1.0635402041394346
1.0033690888747584
1.0005515289266014
1.0019091530081183
1.0044737988317909
1.0011770794818946
1.0738826786534974
1.0689326686853924
1.0837058532098645
1.0778577788647892
1.008051845411659
1.060955664801597
1.0698224662033147
1.003544909552876
1.0031568981133807
1.0033514355710709
1.0041283491621864
1.0045480023594846
1.00618440919277
1.007584955933144
1.0055370177879102
1.0085721333130848
1.0117220718823767
1.0104033157148804
1.0139270178227926
1.020873177042025
1.015833421637721
1.0270743050415623
1.034252173226316
1.0515054291938812
1.0425620823573973
1.039556706561153
1.0362112339411222
1.098043592003912
1.088474765997733
1.0302226293673078
1.026617748446218
1.0193764487887331
1.0777981806244412
1.0869960836179247
1.0498144934644749
1.041708105056085
1.0271153359102434
1.0339262736258137
1.0581499446394123
1.0211277923836954
1.065424181817107
1.0754785720491213
1.0715896555247886
1.0810291667557024
1.0859076136182266
1.06556042140288
1.0740717861640992
1.0562842958538772
1.0470323712778815
1.0383626599147844
1.0306044752124548
1.0238980839152594
1.0163204858116228
1.0121235364305827
1.018279258700548
1.0089275203721775
1.0137006778721833
1.0100775781267808
1.0065003902887606
1.0073102832350649
1.0053049710572735
1.0047733073656622
1.003684305508304
1.0039874088494385
1.0032948803011414
1.0031996899315194
1.0240373575828998
1.0377827111537756
1.0540276655971696
1.0247321279254589
1.0340237284795013
1.0720977954053765
1.0654174776673146
1.0766798885028088
1.0694555700113677
1.0590427058656986
1.084187003858444
1.0751055971259478
1.0242340643880599
1.0512398238739729
1.01964704542023
1.009131994055468
1.0790605294258189
1.0704032401573655
1.0344440063442937
1.0027017717232873
1.0033116066653602
1.0039833364085746
1.006144247240409
1.0075903524984569
1.0117379897082412
1.0131967721968629
1.0208948219763394
1.0530712580073494
1.0269044500744027
1.0769456125866201
1.08535219822534
1.0490327200726117
1.032978082811422
1.041576912820201
1.0531510677116231
1.0023830257252757
1.002669318805727
1.003941891133647
1.0050219755394467
1.007914762632809
1.0097441058479253
1.0144741786151452
1.025510829552021
1.0411378679621521
1.107972033997299
1.0992860060360785
1.0766662395483484
1.0879553704915903
1.0607630654084101
1.0029734870243023
1.0032515757368843
1.0031706622359362
1.0612209313493588
1.003752708678461
1.0043770222429038
1.0056003462581142
1.0053642798870401
1.0069008653554923
1.0083446693184086
1.0107080771129568
1.0101583380857002
1.0127990591731146
1.0154620518406445
1.0192794234283058
1.0265465388355395
1.0680748969585934
1.0320716499156886
1.042010080388029
1.048885479019185
1.0174362726640078
1.045787325826833
1.0304818268431852
1.038647165776141
1.0014570165754397
1.021758311028915
1.0389659103822078
1.0837777927920287
1.0744046642619003
1.0002569121773366
1.0282062276242916
1.0692428658326416
1.078109347538556
1.00394019568537
1.0875215093190742
1.0771331067684864
1.0872136409914455
1.078325113484063
1.0690638753648474
1.0624278431759813
1.062006016573451
1.0185975169905457
1.001053800772142
1.0163453081958265
1.0065916817527123
1.0761908357874144
1.087210488862866
1.0528187222834895
1.0469710938931727

SCALARS Omega double
LOOKUP_TABLE default
4.100276591396171
-10.327730795435972
-14.268649563397668
0.13217857057011106
4.49251542646855
-2.683794553308051
-4.473557660634828
3.5422922230914433
1.0314781535195214
20.842645460337266
-8.188675201153965
-0.4094725223250757
-0.8985275653938817
-0.23421395942754897
-0.11369097867132318
-0.030612111190151413
-0.11116900932414857
-0.1864350413118487
-0.65698928002653
-0.6110339256922885
-6.115745385050857
17.943670585109487
3.5124636782394023
-1.0379081270120096
0.14534828365023333
0.033512257696741654
-0.322031402480473
2.111361729825603
1.0918367791701742
0.7143021740895255
0.5849518485729818
0.5327239424929213
0.507078022978061
0.47819019534530366
0.4415368869510588
0.3974117805670674
0.3477326855173998
0.29624639566451216
0.2449789202427498
0.19618313349196703
0.15080900292460397
0.10952048225669812
0.07261347350639252
0.040333453579124566
0.012569702993085506
-0.011155351329585545
-0.03108181975535722
-0.04752459062711668
-0.060811397862212374
-0.07154132509424006
-0.08001355261642763
-0.08658310712087601
-0.09151389784999814
-0.09520530149862075
-0.09785149337484103
-0.0996730032519993
-0.10081314043691769
-0.1014638331296428
-0.10170958672120575
-0.10162686877438637
-0.10124796093658213
-0.10059290948863692
-0.09964829274357052
-0.09834303166585119
-0.0966122801244811
-0.09434272394968846
-0.09142625853745495
-0.08763222668431628
-0.0827984310741357
-0.07668844523080737
-0.06909527064200428
-0.05954731729103712
-0.047802903249970614
-0.03366497388546637
-0.016472751712211634
0.003910499114032292
0.02774308170472426
0.05530912053745101
0.0867769333804668
0.12203690492203878
0.16057613136083135
0.20168960504346942
0.24401350578080966
0.285935088869724
0.3247869460039399
0.35760137009315174
0.37954715493403407
0.38524800492435496
0.37065562196717344
0.33000239086047983
0.26103410293986123
0.1651091931384427
0.06635078647404978
0.3151066787097382
0.33936277925755276
-0.11646412749211892
-0.13091185667442773
-0.10570544244128749
-0.11366535237418049
-0.12385496956468889
0.7178328075969609
0.8448250621504327
0.046919300114864095
0.4698816282079836
0.4081247471793424
0.16694960755827934
0.0028975471754218835
-0.07395212630508967
-0.10007944145245043
-0.10519634428525837
-0.10385548595556511
-0.10230780758085219
-0.09843631749301729
-0.08460653283898857
-0.040685624540589285
0.3065098106910559
0.09488991775550365
0.051862508429747795
0.2173010543421791
0.4399174100869685
0.528059090925262
-0.10168073739804544
-0.09715105264443766
-0.102340655471003
-0.08372762102511164
-0.09659159909592546
-0.07320444395688541
-0.011171932718895414
-0.04893133638165151
0.11627850663337128
0.32074728071658154
0.4093844304730275
0.49085197054202
0.13352109534941523
2.2490601200616145
2.527400928682828
0.3156010861576592
0.0072441767332710755
-0.31878313544488435
0.434289483881995
-0.10231092622108924
-0.09981692806405906
-0.10036161191589257
-0.09157790155478525
-0.08711259275203126
-0.0687306213534136
-0.04655457285695367
0.0463340589293921
0.21351020278403093
0.04064205045433449
-0.14344316639389176
-0.11680355787946957
-0.1234202943551223
-0.10619346693417589
0.9676272328609022
0.5747828401966147
-0.03102886952373856
0.2379945714029898
0.14049951445144543
0.45038740922744136
0.2219093738206263
0.06523625353621461
-0.09857906644495806
0.38752322420552404
-0.03006943443441353
-0.41888398810737854
-0.15081365778136935
0.03255470394298505
0.2753749214094912
-0.10461616328969842
-0.10807518480278946
-0.10488149130466858
-0.11268902260609283
-0.10497213967852055
-0.11310599821853752
-0.08190653120131809
-0.07324263405403802
0.8361155033640205
0.6923071888276345
-0.20088340153445294
-0.09796264604997491
-0.14249513301138148
-0.20891313998482686
-0.11464430760699286
0.3216035002333606
0.3990826750053134
0.5432661528298792
0.5181516061358084
-0.3016400703848604
0.3762588670955432
0.4676878473958062
-0.10188407620136615
-0.10167070349686635
-0.10038421079556369
-0.09788440007489621
-0.1007293031461659
-0.09731626898274187
-0.08620622829729603
-0.0935053032094928
-0.09023276549149409
-0.07756313163718552
-0.07426981170368319
-0.05627397508185592
-0.024308275533485607
-0.05649859200342762
0.023020098190722642
0.08697762293821462
0.2689062158620057
0.1706292235307948
-0.6191909294917518
-0.5147470841169234
2.3294452251187674
1.977775432656221
-0.011509735355374917
-0.2381694070022897
-0.12062838988453829
0.16690677657373534
-1.0217322041324228
0.2655262803328663
0.1801728004576901
0.0392061471765672
0.10148348527303364
0.34662514697211855
-0.008566668969860266
0.3920916325695979
0.21860644186074624
0.36523518411921646
0.5338230402322061
0.7124939981818881
0.4234154728675138
0.49727144014895197
0.3222716188815975
0.21880357136844739
0.12752218731498272
0.053812359521171194
-0.0016606519172547116
-0.041427650445648466
-0.0655403111932352
-0.04122242055253403
-0.08056138243522967
-0.0676089931618253
-0.08431587013587524
-0.09007820841112517
-0.09403104486061942
-0.09919241075173917
-0.09582606824291197
-0.09921886260678857
-0.10139610467727382
-0.10184407580575366
-0.10108332295891585
0.013962250849879319
0.13979943912239903
0.30760252635709145
-0.2638912731573902
0.09725913339108005
0.6218180596334941
0.5337798651870503
2.9039953778016705
2.155648207265865
0.385646020745418
0.43159595953561203
0.47340738223763157
0.005161758004356539
0.3062370625431872
-0.024410384897529794
-0.28101069591498296
0.5921227818731859
0.5085895250221942
0.0755262931615692
-0.10322296887731547
-0.10472893921779883
-0.10082993819186753
-0.10385718316141129
-0.0929965154974953
-0.08998797085807024
-0.07147385155957314
-0.041828838957407806
0.3101615018917536
0.03413599037441994
1.2523254612617742
1.4785748227904683
0.2651621003446852
0.0903693403560925
0.18033095470583785
0.4136173790001753
-0.10537196689889707
-0.10433475528592492
-0.11016426596226866
-0.10444550632403234
-0.11200116001573522
-0.09772746947777516
-0.09915262606974296
-0.028490043251692142
0.14423106337711286
5.598342302591928
5.403331021629111
-0.012855761299897269
2.0975690307103796
0.48885287031239555
-0.10265928973092318
-0.10312383634480814
-0.10135194605798532
0.40199689968101615
-0.0998380553847893
-0.10270297647368469
-0.10100566888395637
-0.09587048404947013
-0.09124247914476648
-0.09487819303128435
-0.08672286982800866
-0.07944071603574572
-0.06713690872751925
-0.06531830849045174
-0.04228617850093108
0.010999425356933589
0.488678308171079
0.06039491839182545
0.16287202191327346
0.24370900185568384
-0.06902117037217192
0.22262509022679383
0.06938332803352219
0.14914127614684217
-0.10985028243038131
-0.16829937846685844
0.15224910600439975
0.3821709177777266
0.3751898652401687
-0.08900149604136276
0.03241088177723186
0.44000536699574394
0.532189609369579
-0.13409298090489777
0.4668976837177695
0.011219789281261097
-0.5101373601021656
0.34085160636951606
1.0203185730901438
0.9271598518390927
0.3733238666502587
-0.02622250183075035
-0.1725691100219179
-0.05296720420536228
-0.16617295466227017
0.11856080318471564
1.2482118262420685
0.5729328676154637
-1.2167721124874413

SCALARS Vx_analytic double
LOOKUP_TABLE default
4.100276591396171
-10.327730795435972
-14.268649563397668
0.13210637964570304
4.49251542646855
-2.683794553308051
-4.473557660634828
3.5422922230914433
1.0314781535195214
20.842645460337266
-8.188675201153965
-0.4094725223250757
-0.8985275653938817
-0.23421395942754897
-0.11369097867132318
-0.030612111190151413
-0.11116900932414857
-0.1864350413118487
-0.6569892800265298
-0.6110339256922885
-6.115745385050857
17.943670585109487
3.5132646958977016
-1.015770522164495
0.1475555398778745
0.034519698998185785
-0.3200761990907664
2.111361729825603
1.0918367791701742
0.7143021740895255
0.5849518485729818
0.5327239424929213
0.507078022978061
0.47819019534530366
0.4415368869510588
0.3974117805670674
0.3477326855173998
0.29624639566451216
0.2449789202427498
0.19618313349196703
0.15080900292460397
0.10952048225669812
0.07261347350639252
0.040333453579124566
0.012569702993085506
-0.011155351329585545
-0.03108181975535722
-0.04752459062711668
-0.060811397862212374
-0.07154132509424006
-0.08001355261642763
-0.08658310712087601
-0.09151389784999814
-0.09520530149862075
-0.09785149337484103
-0.0996730032519993
-0.10081314043691769
-0.1014638331296428
-0.10170958672120575
-0.10162686877438637
-0.1012478276505552
-0.10059294204195196
-0.0996484550493854
-0.0983435019011047
-0.09661312131879987
-0.09434451871861106
-0.09142861870458997
-0.08763597043769353
-0.08280334278891205
-0.07669661379638115
-0.06910496134825732
-0.05956144851391321
-0.04782298754006122
-0.033672460396422556
-0.016485391452382786
0.0038884095097746017
0.027721518384709192
0.055297474114424185
0.08676827989982115
0.12202034388195836
0.16057453055738735
0.20170954643102987
0.24406643450330948
0.28600158380064916
0.32489654469075974
0.35771286937449465
0.3797278569291899
0.38560071590678696
0.37102831606705267
0.33040741310230026
0.2613683054362945
0.16535185060572027
0.06630766750189258
0.30728902821795856
0.33717061452092
-0.1157371465601326
-0.13079943948012995
-0.10570535512391709
-0.11372780229948869
-0.12456353024138145
0.7269997387825529
0.8347617254270676
0.046007270506531535
0.46799101154745065
0.41050734696059454
0.16692146289099455
0.003136668823902619
-0.07378379845270862
-0.10001567391903592
-0.10518127231499491
-0.10385296486822548
-0.10231052803077063
-0.09846832164149147
-0.08473012843988917
-0.04101671792384057
0.3086317366367543
0.1016415681509846
0.051537871129857075
0.21754434337177966
0.44228040793500095
0.5270414712543524
-0.10168036655234973
-0.09715932322660423
-0.10233728464412034
-0.08377000668667892
-0.09657556248298688
-0.07315791420022245
-0.011102327663139766
-0.04907507932942802
0.11625277765604536
0.320258229891208
0.4115959586539389
0.4921555331207625
0.13340677181581154
2.25624374662155
2.465884214837684
0.31620104478253674
0.007045941752135458
-0.31995283261097557
0.43353010341345394
-0.10230954769970607
-0.09981884026472451
-0.1003537180472787
-0.09159326976904775
-0.08708221543360029
-0.06878611534530893
-0.04648330343858068
0.046411186946957284
0.2133888545921967
0.041510521744973494
-0.1429973079278387
-0.11677288635863929
-0.12376119510985807
-0.1062044599440903
0.8926160215204668
0.5831067609988584
-0.03178275469461685
0.23793720672138602
0.14188665745972032
0.45922610610646974
0.22203848098081114
0.06507796699727336
-0.09857956794857914
0.38847507772022793
-0.03015694243843443
-0.4175139088450034
-0.15089691667408223
0.03283307489491253
0.2746372744133444
-0.10461649295415254
-0.10806434632249441
-0.10490610193157025
-0.11263371909575674
-0.10508948353650278
-0.11291175052287394
-0.08229300621660658
-0.07287632478518714
0.8282370826628815
0.697911999090037
-0.2006682243596231
-0.09797116703088998
-0.1424348295531202
-0.20985491953468344
-0.11468425977837059
0.32291998604915817
0.4004661603598746
0.5455847679290206
0.5182087427676809
-0.3007930965710569
0.375962333650912
0.4672919894446383
-0.10188333045339516
-0.10167020731103475
-0.10038502890796841
-0.0978882385467597
-0.10072764797374444
-0.09731253721591672
-0.08622901541256897
-0.09351735548255502
-0.09022641066299127
-0.07755275575139545
-0.07432039420404724
-0.05635099744410204
-0.024297351235122215
-0.05648791947704617
0.023012124120601617
0.08694559797827398
0.2687318303377858
0.17053225418633988
-0.6002055555256388
-0.5404004018209317
2.3324891610305136
1.9952133237032983
-0.014257358255233017
-0.23526584133958525
-0.12196078555213094
0.1688958090965341
-1.006428528816573
0.2657657157797492
0.18013718698293107
0.03905086594864789
0.10135564260066
0.347362197574489
-0.008684319444197312
0.39328239635322043
0.21971500681175124
0.3663367858563816
0.5347506766808117
0.7167242441774269
0.4231117937816082
0.4970539901841225
0.32210796456541024
0.2187517832969795
0.12751921381714387
0.05384393201624157
-0.0016322894206666873
-0.04151191155065003
-0.06558852477115544
-0.041193178599958975
-0.08058918605331179
-0.06759113277235154
-0.08430334731522257
-0.09009150162918854
-0.09402489191073513
-0.0991892092325518
-0.09583184572165358
-0.09922064608285362
-0.10139490965510774
-0.10184361020515516
-0.10108341549805051
0.013839356920068099
0.13970756573243448
0.30797848305189457
-0.2698286969773666
0.09687450540464347
0.6181302600909089
0.5377275131524747
2.803641245253307
1.988321001378338
0.3871698791886428
0.42802012396639
0.4775215942838726
0.004780602870157069
0.3069585322807901
-0.024649601427371756
-0.2824246628745184
0.5891893005314452
0.5124021151991248
0.07569952319075657
-0.10322246035634175
-0.10472312727566106
-0.10084273201007714
-0.1038241951238093
-0.09306743180288772
-0.0898841711547317
-0.0716621431322158
-0.04160908275382728
0.3094423826452391
0.03395512403853834
1.2650001535191207
1.460233963301151
0.26559395215649334
0.09019050064834827
0.18038623593960193
0.41485591046485565
-0.10536896235447994
-0.10433930005250282
-0.11013665881849588
-0.10448760294828237
-0.11189194719586801
-0.09790551172982934
-0.09883423321629005
-0.028031205036259842
0.14415472576216848
5.320999423523908
5.209113620693747
-0.012093327463834872
2.0940044611016364
0.4859303617038188
-0.10265782145731578
-0.10312143453262793
-0.10135356154036058
0.4010911438352607
-0.09984342184098624
-0.10269515363958209
-0.1009910263538156
-0.0958910425470661
-0.09127527610625445
-0.09484443757977758
-0.08667060521092683
-0.07952305266773019
-0.0672486103505883
-0.06522696170436311
-0.04217311602229246
0.011130154359653503
0.48724962629613766
0.060495842167752986
0.16281780513829058
0.2434373959199316
-0.06948058667620774
0.22266343541757114