# vtk DataFile Version 1.0
2D Simulation C++
ASCII
DATASET UNSTRUCTURED_GRID
FIELD FieldData 1
NODES 1 2 int
348 601

POINTS 348 double
0.0 0.5 0.0
0.0 1.0 0.0
2.0 1.0 0.0
2.0 0.5 0.0
0.0 0.528801679611206 0.0
0.0 0.564507782459259 0.0
0.0 0.6110168099403381 0.0
0.0 0.6721802353858948 0.0
0.0 0.7528436183929443 0.0
0.0 0.8593378663063049 0.0
0.16666941344738007 1.0 0.0
0.3333356976509094 1.0 0.0
0.5000020265579224 1.0 0.0
0.6666678786277771 1.0 0.0
0.8333337306976318 1.0 0.0
1.0 1.0 0.0
1.1666662693023682 1.0 0.0
1.3333321809768677 1.0 0.0
1.4999979734420776 1.0 0.0
1.6666642427444458 1.0 0.0
1.8333306312561035 1.0 0.0
2.0 0.8593378663063049 0.0
2.0 0.7528436183929443 0.0
2.0 0.6721802353858948 0.0
2.0 0.6110168099403381 0.0
2.0 0.564507782459259 0.0
2.0 0.528801679611206 0.0
0.029850948601961136 0.5 0.0
0.05970168858766556 0.5 0.0
0.08955242484807968 0.5 0.0
0.1194031685590744 0.5 0.0
0.14925390481948853 0.5 0.0
0.17910465598106384 0.5 0.0
0.20895539224147797 0.5 0.0
0.2388061285018921 0.5 0.0
0.2686568796634674 0.5 0.0
0.29850760102272034 0.5 0.0
0.32835835218429565 0.5 0.0
0.35820910334587097 0.5 0.0
0.3880598247051239 0.5 0.0
0.4179105758666992 0.5 0.0
0.44776129722595215 0.5 0.0
0.47761204838752747 0.5 0.0
0.5074627995491028 0.5 0.0
0.5373135209083557 0.5 0.0
0.5671642422676086 0.5 0.0
0.5970150232315063 0.5 0.0
0.6268657445907593 0.5 0.0
0.6567164659500122 0.5 0.0
0.6865672469139099 0.5 0.0
0.7164179682731628 0.5 0.0
0.7462686896324158 0.5 0.0
0.7761194705963135 0.5 0.0
0.8059701919555664 0.5 0.0
0.8358209133148193 0.5 0.0
0.865671694278717 0.5 0.0
0.89552241563797 0.5 0.0
0.9253731369972229 0.5 0.0
0.9552239179611206 0.5 0.0
0.9850746393203735 0.5 0.0
1.0149253606796265 0.5 0.0
1.0447760820388794 0.5 0.0
1.0746268033981323 0.5 0.0
1.1044776439666748 0.5 0.0
1.1343283653259277 0.5 0.0
1.1641790866851807 0.5 0.0
1.1940298080444336 0.5 0.0
1.2238805294036865 0.5 0.0
1.2537312507629395 0.5 0.0
1.2835819721221924 0.5 0.0
1.3134328126907349 0.5 0.0
1.3432835340499878 0.5 0.0
1.3731342554092407 0.5 0.0
1.4029849767684937 0.5 0.0
1.4328356981277466 0.5 0.0
1.4626864194869995 0.5 0.0
1.492537260055542 0.5 0.0
1.522387981414795 0.5 0.0
1.5522387027740479 0.5 0.0
1.5820894241333008 0.5 0.0
1.6119401454925537 0.5 0.0
1.6417908668518066 0.5 0.0
1.6716417074203491 0.5 0.0
1.701492428779602 0.5 0.0
1.731343150138855 0.5 0.0
1.761193871498108 0.5 0.0
1.7910445928573608 0.5 0.0
1.8208953142166138 0.5 0.0
1.8507460355758667 0.5 0.0
1.8805968761444092 0.5 0.0
1.910447597503662 0.5 0.0
1.940298318862915 0.5 0.0
1.970149040222168 0.5 0.0
1.7358819246292114 0.7499510645866394 0.0
0.2656642198562622 0.7486277222633362 0.0
0.49981194734573364 0.737183690071106 0.0
0.74151611328125 0.7359843254089355 0.0
0.9774143695831299 0.7371892929077148 0.0
1.201690912246704 0.7367381453514099 0.0
1.447761058807373 0.7383390665054321 0.0
1.8591958284378052 0.6421071290969849 0.0
0.14080412685871124 0.6421071290969849 0.0
1.588537573814392 0.6783608794212341 0.0
0.2553686201572418 0.6221352219581604 0.0
1.7466964721679688 0.6278358101844788 0.0
0.38199201226234436 0.6273008584976196 0.0
0.5013589859008789 0.6272794008255005 0.0
0.6207823157310486 0.6272526383399963 0.0
0.7401852607727051 0.627252459526062 0.0
0.8595882654190063 0.6272523999214172 0.0
0.9701492786407471 0.6212864518165588 0.0
1.0807102918624878 0.6272523999214172 0.0
1.2001131772994995 0.6272523999214172 0.0
1.3195161819458008 0.6272523999214172 0.0
1.4488563537597656 0.6310953497886658 0.0
1.9247323274612427 0.5706554055213928 0.0
0.07526770234107971 0.5706554055213928 0.0
1.5377081632614136 0.5910930037498474 0.0
1.6566967964172363 0.5934624075889587 0.0
1.8074009418487549 0.5708622932434082 0.0
0.1940300166606903 0.5737577676773071 0.0
1.0286364555358887 0.5665481686592102 0.0
1.14803946018219 0.5665481686592102 0.0
0.9116620421409607 0.5665481686592102 0.0
1.2674424648284912 0.5665481686592102 0.0
0.7922590970993042 0.5665481686592102 0.0
0.6728560328483582 0.5665482878684998 0.0
0.5534531474113464 0.5665481686592102 0.0
1.3892061710357666 0.5727682709693909 0.0
0.43402159214019775 0.5665869116783142 0.0
0.3146642744541168 0.5667200088500977 0.0
1.8656742572784424 0.5607567429542542 0.0
0.1343258023262024 0.5607567429542542 0.0
1.5970147848129272 0.5642029047012329 0.0
1.8783670663833618 0.7786769866943359 0.0
0.12163297086954117 0.7786769866943359 0.0
1.7164177894592285 0.562579333782196 0.0
1.4776118993759155 0.5620538592338562 0.0
1.5857784748077393 0.867691159248352 0.0
0.25373148918151855 0.5588531494140625 0.0
0.9701492786407471 0.5582930445671082 0.0
1.0895521640777588 0.5582930445671082 0.0
0.8507462739944458 0.5582930445671082 0.0
1.20895516872406 0.5582930445671082 0.0
0.7313433289527893 0.5582930445671082 0.0
1.3283581733703613 0.5582930445671082 0.0
0.6119403839111328 0.5582930445671082 0.0
0.49253740906715393 0.5582930445671082 0.0
0.37313446402549744 0.5582956075668335 0.0
0.36864349246025085 0.7376502752304077 0.0
0.602456271648407 0.7355343103408813 0.0
0.8441241383552551 0.7366551756858826 0.0
1.3355978727340698 0.7366551160812378 0.0
1.0895521640777588 0.7378703355789185 0.0
0.07051979005336761 0.6486480832099915 0.0
1.9294801950454712 0.6486480832099915 0.0
1.5086064338684082 0.6743985414505005 0.0
1.6785967350006104 0.6649783849716187 0.0
1.9543375968933105 0.5452249050140381 0.0
0.04566239193081856 0.5452249050140381 0.0
1.6567095518112183 0.5496091842651367 0.0
1.53738272190094 0.5491842031478882 0.0
0.91306072473526 0.8965699672698975 0.0
1.7782752513885498 0.5446287989616394 0.0
1.4163299798965454 0.5447981357574463 0.0
0.4287482798099518 0.8945969939231873 0.0
1.2610714435577393 0.8950135707855225 0.0
0.4313095211982727 0.6832783222198486 0.0
0.31561949849128723 0.6858259439468384 0.0
1.029850721359253 0.6781684160232544 0.0
0.9082015752792358 0.6848641633987427 0.0
1.1492537260055542 0.6781684160232544 0.0
0.7886138558387756 0.678956151008606 0.0
1.2709345817565918 0.684736430644989 0.0
0.6685023903846741 0.6868807673454285 0.0
1.4007169008255005 0.6702371835708618 0.0
0.5483440160751343 0.6792802214622498 0.0
0.19808045029640198 0.6887137293815613 0.0
1.797759771347046 0.6853783130645752 0.0
0.6811949610710144 0.8757594227790833 0.0
1.0189321041107178 0.8474968671798706 0.0
0.7922950983047485 0.8446238040924072 0.0
1.3765455484390259 0.8590760827064514 0.0
1.1571698188781738 0.8478953838348389 0.0
1.8954496383666992 0.5359624624252319 0.0
1.8360060453414917 0.5359931588172913 0.0
0.10455036163330078 0.5359624624252319 0.0
0.16417928040027618 0.5353734493255615 0.0
0.5530290007591248 0.8422092199325562 0.0
0.2832632064819336 0.5367912650108337 0.0
0.22469767928123474 0.5394234657287598 0.0
0.9405550956726074 0.5357381105422974 0.0
0.9997434020042419 0.5357381105422974 0.0
1.0600273609161377 0.5365630984306335 0.0
1.1191463470458984 0.5357381105422974 0.0
0.8802711367607117 0.5365630984306335 0.0
0.8211521506309509 0.5357381105422974 0.0
1.2385493516921997 0.5357381105422974 0.0
1.179430365562439 0.5365630984306335 0.0
0.7608681321144104 0.5365630984306335 0.0
0.7017492055892944 0.5357381105422974 0.0
1.2988333702087402 0.5365630984306335 0.0
1.357560396194458 0.5390686392784119 0.0
0.5823462605476379 0.5357381105422974 0.0
0.6414651870727539 0.5365630984306335 0.0
0.5220622420310974 0.5365630984306335 0.0
0.4629422128200531 0.535739541053772 0.0
0.3435409665107727 0.5357455015182495 0.0
0.4026572108268738 0.5365669131278992 0.0
0.21006634831428528 0.8590372204780579 0.0
1.7943172454833984 0.8627070188522339 0.0
0.06134982034564018 0.7191494703292847 0.0
1.938650131225586 0.7191494703292847 0.0
1.634666085243225 0.7584379315376282 0.0
0.3355695903301239 0.8387951850891113 0.0
1.537941336631775 0.7633647918701172 0.0
1.9670078754425049 0.574067234992981 0.0
0.032992132008075714 0.574067234992981 0.0
1.6862140893936157 0.5314788222312927 0.0
1.6272135972976685 0.5317342281341553 0.0
1.5077245235443115 0.5309156775474548 0.0
1.5668202638626099 0.5316618084907532 0.0
1.7466963529586792 0.5298213958740234 0.0
1.4473658800125122 0.5297333002090454 0.0
1.804386019706726 0.5275400876998901 0.0
1.9283779859542847 0.5282225012779236 0.0
1.8656879663467407 0.5267112255096436 0.0
0.13432854413986206 0.5271331071853638 0.0
0.07162196189165115 0.5282225012779236 0.0
0.25373148918151855 0.527070939540863 0.0
0.19419340789318085 0.5297109484672546 0.0
0.31349387764930725 0.5272363424301147 0.0
0.37313446402549744 0.5270199179649353 0.0
0.4329495429992676 0.5274069309234619 0.0
0.49253740906715393 0.5270196795463562 0.0
0.5523557066917419 0.5274024605751038 0.0
1.3898069858551025 0.5277745127677917 0.0
1.3283581733703613 0.5270196795463562 0.0
0.6119403839111328 0.5270196795463562 0.0
1.2685397863388062 0.5274024605751038 0.0
0.6717586517333984 0.5274024605751038 0.0
0.7313433289527893 0.5270196795463562 0.0
1.20895516872406 0.5270196795463562 0.0
0.7911616563796997 0.5274024605751038 0.0
0.8507462739944458 0.5270196795463562 0.0
1.1491369009017944 0.5274024605751038 0.0
1.0895521640777588 0.5270196795463562 0.0
0.9105646014213562 0.5274024605751038 0.0
0.9701492786407471 0.5270196795463562 0.0
1.0297338962554932 0.5274024605751038 0.0
1.4776118993759155 0.5259945392608643 0.0
1.597015619277954 0.5255197882652283 0.0
1.7164177894592285 0.525999903678894 0.0
1.6834615468978882 0.8477573990821838 0.0
1.5822722911834717 0.6086509227752686 0.0
0.20459823310375214 0.6270732283592224 0.0
1.8037469387054443 0.6209055185317993 0.0
0.09990309923887253 0.8589919805526733 0.0
1.9000968933105469 0.8589919805526733 0.0
1.75603187084198 0.5789161324501038 0.0
0.10896337777376175 0.5982794761657715 0.0
1.8910366296768188 0.5982794761657715 0.0
1.4950518608093262 0.605266273021698 0.0
1.7049394845962524 0.6007562279701233 0.0
1.4387125968933105 0.5775743722915649 0.0
1.489302158355713 0.851039469242096 0.0
0.15732239186763763 0.5961292386054993 0.0
1.8436260223388672 0.5944437384605408 0.0
0.4399496018886566 0.6259797215461731 0.0
1.022565245628357 0.6257523894309998 0.0
[...]
POINT_DATA 348
SCALARS Psi double
LOOKUP_TABLE default
1.087898474505921
1.0
1.0
1.0766684692566422
1.087788006230877
1.0875451104726972
1.0891468084440872
1.093872805577502
1.1033510760286016
1.1418217491790557
1.0
1.0
1.0
1.0
1.0
1.0
1.0
1.0
1.0
1.0
1.0
1.1342685463948643
1.0942751242409663
1.0844750354831827
1.0798819113724072
1.0777145537983448
1.0768590541920264
1.0879812890902087
1.0867118737203685
1.084822304727303
1.0824207999612792
1.07947981058564
1.07602374795362
1.0721218737328362
1.067867293876568
1.0633834607860402
1.0587584764216091
1.05409206207282
1.0494630468909563
1.0449565223378623
1.0406243933955648
1.036494424835624
1.0325996192880922
1.0289672844690563
1.0256109400015743
1.0225183845118482
1.0196944968263217
1.0171381906735368
1.01484486203821
1.0127905844151868
1.010968779186521
1.0093691715629338
1.0079826246132664
1.0067887562643625
1.0057803759758304
1.0049494028548862
1.0042890027962377
1.003786664641808
1.0034382993190762
1.003241199565995
1.0031934442639985
1.0032914481784272
1.0035346311375264
1.0039285742433686
1.0044762170590074
1.0051807818982688
1.0060462357461992
1.007085952907019
1.008306272464418
1.0097144700031622
1.0113162605269264
1.0131345528458295
1.015174058034366
1.0174309700493596
1.0199346785756116
1.0226764930901477
1.025655503485553
1.0288722148436165
1.0323240682515769
1.0359903891850184
1.0398395377927852
1.043833844027076
1.0479255363452393
1.0520543032562295
1.056143908295597
1.0601072579917996
1.0638381740187957
1.0672402127748206
1.070204758710059
1.0726291927367757
1.0744756476862996
1.0757491274576874
1.076461344435779
1.046786711109748
1.0518854974995304
1.0201199545674668
1.0058086488405251
1.0016730890732302
1.0036439487144646
1.0139159671409281
1.073368257084722
1.0821127466395353
1.0311074484642162
1.0635343109924538
1.056689605790545
1.0425530035947304
1.0268241535057545
1.015624362388416
1.0084497788026177
1.0043633587493626
1.0028457867716807
1.0030421303403583
1.0054010944040002
1.0102988518924463
1.0190457071421448
1.076281597020838
1.085676545045642
1.029251343432489
1.0445295116975009
1.0659083918864358
1.074034191606717
1.0030690600136973
1.004581156625481
1.0038189305409808
1.008611711426916
1.0070315646224728
1.0132384594371586
1.0232041804416914
1.0157540903958482
1.0374860201990463
1.0554784179709253
1.0719808302860097
1.0811616401265016
1.037206961607508
1.0782438794756344
1.0863580194891462
1.0536728172764962
1.0235734735172644
1.0130768691662628
1.0652546100949494
1.0031970524730125
1.003579888193564
1.0051657431279089
1.006342712997286
1.0098477968555468
1.0118732770505445
1.017911442659963
1.0300947466121224
1.0464794892479887
1.0356947694515581
1.0123546184430507
1.0031387426964244
1.0079927420496277
1.0019375177825474
1.0902638557374302
1.0807843178728136
1.022636796751749
1.0445797931518364
1.0766486529924706
1.0869297742305155
1.0454993564028188
1.0301804044160832
1.0004324779457143
1.0622233994945993
1.0182593122279575
1.0105238643737668
1.0014801910947342
1.0321300518410077
1.0494026491767945
1.0022866924228704
1.0028325832447522
1.003548759332401
1.0056184817133804
1.0068375194662311
1.0105844966847426
1.014016969341587
1.0195846246205806
1.0716959174673117
1.0635402041394344
1.0033690888747588
1.0005515289266016
1.001909153008119
1.0044737988317907
1.0011770794818946
1.0738826786534965
1.0689326686853922
1.0837058532098678
1.0778577788647923
1.0080518454116596
1.0609556648015999
1.0698224662033178
1.0035449095528768
1.0031568981133816
1.0033514355710718
1.0041283491621866
1.0045480023594857
1.0061844091927716
1.0075849559331436
1.00553701778791
1.0085721333130864
1.0117220718823785
1.0104033157148802
1.0139270178227924
1.0208731770420265
1.0158334216377227
1.0270743050415643
1.0342521732263183
1.051505429193884
1.0425620823574
1.0395567065611537
1.036211233941122
1.0980435920039142
1.0884747659977323
1.0302226293673078
1.0266177484462187
1.019376448788733
1.0777981806244397
1.0869960836179282
1.0498144934644749
1.041708105056085
1.0271153359102432
1.0339262736258135
1.0581499446394127
1.0211277923836952
1.065424181817107
1.07547857204912
1.071589655524788
1.0810291667557055
1.0859076136182304
1.065560421402883
1.0740717861641025
1.0562842958538798
1.0470323712778842
1.0383626599147868
1.030604475212457
1.0238980839152612
1.0163204858116226
1.0121235364305825
1.0182792587005496
1.0089275203721773
1.0137006778721847
1.0100775781267823
1.0065003902887601
1.0073102832350664
1.0053049710572748
1.0047733073656622
1.003684305508305
1.0039874088494394
1.0032948803011426
1.00319968993152
1.0240373575828996
1.0377827111537754
1.0540276655971699
1.0247321279254589
1.034023728479501
1.0720977954053792
1.0654174776673144
1.0766798885028095
1.0694555700113675
1.0590427058656986
1.0841870038584474
1.075105597125947
1.0242340643880594
1.0512398238739729
1.0196470454202295
1.0091319940554677
1.0790605294258222
1.070403240157365
1.0344440063442955
1.002701771723288
1.0033116066653611
1.0039833364085748
1.00614424724041
1.0075903524984569
1.0117379897082428
1.0131967721968627
1.0208948219763407
1.0530712580073516
1.0269044500744027
1.0769456125866197
1.0853521982253422
1.0490327200726117
1.032978082811422
1.0415769128202008
1.0531510677116231
1.0023830257252768
1.0026693188057274
1.003941891133648
1.0050219755394467
1.0079147626328104
1.009744105847925
1.0144741786151468
1.0255108295520223
1.041137867962154
1.1079720339973003
1.0992860060360778
1.0766662395483466
1.0879553704915943
1.0607630654084124
1.0029734870243032
1.0032515757368852
1.0031706622359369
1.0612209313493615
1.0037527086784614
1.004377022242905
1.0056003462581156
1.0053642798870404
1.0069008653554923
1.0083446693184104
1.0107080771129586
1.0101583380856998
1.0127990591731144
1.0154620518406463
1.0192794234283074
1.026546538835541
1.0680748969585965
1.0320716499156903
1.0420100803880314
1.0488854790191875
1.0174362726640074
1.0457873258268329
1.030481826843185
1.038647165776141
1.0014570165754402
1.0217583110289161
1.0389659103822075
1.0837777927920318
1.0744046642618996
1.0002569121773368
1.0282062276242914
1.0692428658326414
1.078109347538559
1.0039401956853697
1.0875215093190782
1.0771331067684846
1.0872136409914492
1.0783251134840621
1.0690638753648491
1.062427843175981
1.0620060165734517
1.0185975169905455
1.0010538007721421
1.016345308195826
1.0065916817527134
1.0761908357874133
1.0872104888628698
1.0528187222834895
1.0469710938931724

SCALARS Omega double
LOOKUP_TABLE default
4.100276591395627
-10.327730795436208
-14.268649563397851
0.1321785705700612
4.492515426470542
-2.6837945533082284
-4.473557660634807
3.5422922230914877
1.0314781535196693
20.842645460337415
-8.188675201154123
-0.4094725223251462
-0.8985275653939393
-0.2342139594276019
-0.11369097867137014
-0.030612111190197355
-0.11116900932420123
-0.1864350413119021
-0.6569892800265942
-0.6110339256923789
-6.115745385050978
17.943670585109462
3.5124636782394214
-1.0379081270117712
0.14534828365010827
0.033512257696240805
-0.3220314024811457
2.1113617298259886
1.0918367791705277
0.7143021740897707
0.5849518485731532
0.532723942493043
0.507078022978149
0.4781901953453678
0.44153688695110593
0.397411780567102
0.3477326855174256
0.2962463956645316
0.24497892024276466
0.19618313349197866
0.15080900292461338
0.1095204822567061
0.0726134735063996
0.04033345357913111
0.012569702993091824
-0.011155351329579271
-0.03108181975535087
-0.04752459062711015
-0.06081139786220565
-0.07154132509423311
-0.08001355261642044
-0.08658310712086859
-0.0915138978499905
-0.09520530149861293
-0.09785149337483308
-0.09967300325199126
-0.1008131404369096
-0.10146383312963468
-0.10170958672119763
-0.10162686877437829
-0.10124796093657411
-0.10059290948862898
-0.09964829274356268
-0.09834303166584343
-0.0966122801244734
-0.09434272394968084
-0.09142625853744739
-0.08763222668430873
-0.08279843107412814
-0.07668844523079973
-0.06909527064199651
-0.059547317291029155
-0.04780290324996235
-0.03366497388545773
-0.01647275171220249
0.0039104991140420575
0.027743081704734777
0.055309120537462425
0.08677693338047932
0.12203690492205255
0.16057613136084656
0.20168960504348615
0.24401350578082784
0.2859350888697434
0.3247869460039599
0.35760137009317094
0.37954715493405006
0.3852480049243636
0.37065562196716784
0.33000239086044797
0.26103410293978435
0.16510919313829542
0.0663507864738362
0.3151066787097477
0.33936277925756475
-0.11646412749211192
-0.13091185667442032
-0.10570544244127991
-0.11366535237417584
-0.12385496956468431
0.7178328075969744
0.8448250621504936
0.04691930011487429
0.4698816282080127
0.40812474717936037
0.16694960755829003
0.0028975471754289195
-0.07395212630508259
-0.1000794414524426
-0.10519634428525002
-0.10385548595555684
-0.10230780758084446
-0.09843631749301024
-0.08460653283898152
-0.040685624540581014
0.30650981069097166
0.09488991775568707
0.051862508429759015
0.21730105434219538
0.43991741008698293
0.5280590909253249
-0.1016807373980374
-0.09715105264443008
-0.10234065547099477
-0.0837276210251042
-0.09659159909591765
-0.07320444395687836
-0.011171932718888958
-0.04893133638164333
0.11627850663337977
0.3207472807166021
0.4093844304730163
0.49085197054213886
0.13352109534942921
2.249060120061622
2.527400928682859
0.3156010861576785
0.007244176733280926
-0.3187831354448946
0.43428948388203215
-0.10231092622108107
-0.09981692806405128
-0.10036161191588448
-0.09157790155477778
-0.08711259275202383
-0.0687306213534059
-0.046554572856947085
0.04633405892939896
0.21351020278404356
0.04064205045434252
-0.14344316639388463
-0.11680355787946158
-0.12342029435511825
-0.10619346693416953
0.967627232860975
0.5747828401966341
-0.031028869523730265
0.23799457140300406
0.14049951445124065
0.4503874092278011
0.22190937382064344
0.06523625353622634
-0.09857906644496238
0.3875232242055418
-0.0300694344344048
-0.4188839881073894
-0.1508136577813837
0.032554703942993174
0.2753749214095049
-0.10461616328969059
-0.10807518480278099
-0.10488149130466178
-0.11268902260608464
-0.10497213967851451
-0.11310599821852997
-0.08190653120131128
-0.07324263405403085
0.8361155033640502
0.6923071888276511
-0.20088340153445863
-0.09796264604997243
-0.1424951330113779
-0.20891313998483294
-0.11464430760699508
0.32160350023331313
0.39908267500531724
0.5432661528300669
0.518151606135906
-0.3016400703848553
0.3762588670955723
0.46768784739585845
-0.10188407620135798
-0.10167070349685828
-0.10038421079555579
-0.0978844000748885
-0.1007293031461578
-0.09731626898273397
-0.08620622829728851
-0.09350530320948522
-0.09023276549148652
-0.0775631316371784
-0.07426981170367553
-0.056273975081847886
-0.02430827553347925
-0.056498592003420944
0.0230200981907291
0.08697762293822207
0.26890621586202235
0.17062922353080515
-0.6191909294917626
-0.5147470841169335
2.3294452251188256
1.977775432656264
-0.011509735355368962
-0.2381694070022909
-0.12062838988453456
0.16690677657351682
-1.021732204132255
0.26552628033288495
0.18017280045770595
0.039206147176578096
0.10148348527304664
0.34662514697213825
-0.008566668969850892
0.3920916325696114
0.21860644186062952
0.3652351841192005
0.5338230402323444
0.7124939981821795
0.4234154728675534
0.4972714401490248
0.32227161888161965
0.21880357136846043
0.1275221873149913
0.05381235952117799
-0.0016606519172483957
-0.041427650445640035
-0.06554031119322737
-0.04122242055252756
-0.08056138243522211
-0.06760899316181841
-0.08431587013586792
-0.09007820841111762
-0.09403104486061169
-0.09919241075173114
-0.0958260682429043
-0.09921886260678077
-0.10139610467726567
-0.10184407580574556
-0.10108332295890787
0.013962250849889396
0.1397994391224134
0.30760252635711116
-0.26389127315739774
0.09725913339109256
0.6218180596335369
0.5337798651870671
2.90399537780168
2.1556482072658514
0.38564602074543713
0.4315959595357201
0.4734073822376151
0.005161758004366274
0.3062370625432053
-0.02441038489752092
-0.28101069591499056
0.5921227818732624
0.5085895250222017
0.07552629316157732
-0.10322296887730742
-0.10472893921779043
-0.10082993819186016
-0.10385718316140315
-0.0929965154974883
-0.08998797085806282
-0.07147385155956572
-0.04182883895740097
0.3101615018917705
0.03413599037443064
1.2523254612617944
1.478574822790509
0.2651621003447033
0.09036934035610503
0.1803309547058534
0.4136173790001904
-0.10537196689888885
-0.10433475528591764
-0.11016426596226028
-0.104445506324026
-0.11200116001572735
-0.09772746947776899
-0.09915262606973568
-0.028490043251684822
0.14423106337712313
5.598342302592
5.403331021629117
-0.012855761300222472
2.097569030711109
0.48885287031241736
-0.102659289730915
-0.10312383634479985
-0.10135194605797743
0.4019968996810439
-0.09983805538478165
-0.10270297647367642
-0.10100566888394828
-0.09587048404946276
-0.09124247914475918
-0.0948781930312766
-0.08672286982800123
-0.07944071603573831
-0.06713690872751157
-0.06531830849044483
-0.042286178500924435
0.010999425356940297
0.48867830817112046
0.060394918391832794
0.16287202191328382
0.24370900185569808
-0.06902117037216482
0.2226250902268112
0.0693833280335341
0.14914127614685577
-0.10985028243037498
-0.1682993784668539
0.15224910600441402
0.38217091777787615
0.37518986524013015
-0.08900149604137972
0.03241088177724225
0.4400053669957493
0.5321896093696672
-0.1340929809048973
0.46689768371830676
0.011219789280893457
-0.510137360102045
0.3408516063694352
1.0203185730901643
0.9271598518391032
0.3733238666502766
-0.02622250183074149
-0.17256911002193667
-0.05296720420535432
-0.16617295466226523
0.11856080318452185
1.2482118262424937
0.572932867615406
-1.2167721124875155

SCALARS Vx_analytic double
LOOKUP_TABLE default
4.100276591395627
-10.327730795436208
-14.268649563397851
0.13210637964565147
4.492515426470542
-2.6837945533082284
-4.473557660634807
3.5422922230914877
1.0314781535196693
20.842645460337415
-8.188675201154123
-0.4094725223251462
-0.8985275653939393
-0.2342139594276019
-0.11369097867137014
-0.030612111190197355
-0.11116900932420123
-0.1864350413119021
-0.656989280026594
-0.6110339256923789
-6.115745385050978
17.943670585109462
3.513264695897721
-1.0157705221642588
0.14755553987775125
0.034519698997687906
-0.320076199091437
2.1113617298259886
1.0918367791705277
0.7143021740897707
0.5849518485731532
0.532723942493043
0.507078022978149
0.4781901953453678
0.44153688695110593
0.397411780567102
0.3477326855174256
0.2962463956645316
0.24497892024276466
0.19618313349197866
0.15080900292461338
0.1095204822567061
0.0726134735063996
0.04033345357913111
0.012569702993091824
-0.011155351329579271
-0.03108181975535087
-0.04752459062711015
-0.06081139786220565
-0.07154132509423311
-0.08001355261642044
-0.08658310712086859
-0.0915138978499905
-0.09520530149861293
-0.09785149337483308
-0.09967300325199126
-0.1008131404369096
-0.10146383312963468
-0.10170958672119763
-0.10162686877437829
-0.10124782765054699
-0.10059294204194401
-0.09964845504937754
-0.09834350190109703
-0.09661312131879227
-0.09434451871860347
-0.09142861870458249
-0.08763597043768599
-0.08280334278890461
-0.07669661379637353
-0.06910496134824955
-0.05956144851390467
-0.04782298754005291
-0.033672460396414035
-0.016485391452373852
0.0038884095097843664
0.027721518384719705
0.055297474114435606
0.08676827989983384
0.1220203438819721
0.16057453055740256
0.20170954643104658
0.24406643450332768
0.28600158380066926
0.32489654469077917
0.3577128693745163
0.37972785692920535
0.3856007159067956
0.3710283160670477
0.3304074131022685
0.2613683054362176
0.16535185060557306
0.06630766750168049
0.3072890282179677
0.3371706145209318
-0.11573714656012568
-0.13079943948012251
-0.10570535512390951
-0.11372780229948405
-0.12456353024137692
0.7269997387825665
0.83476172542713
0.04600727050654167
0.46799101154747963
0.4105073469606125
0.16692146289100498
0.0031366688239097616
-0.07378379845270155
-0.10001567391902808
-0.10518127231498656
-0.10385296486821721
-0.10231052803076292
-0.09846832164148439
-0.08473012843988229
-0.04101671792383231
0.3086317366366703
0.1016415681511708
0.05153787112986828
0.2175443433717959
0.4422804079350174
0.5270414712544155
-0.1016803665523417
-0.09715932322659683
-0.10233728464411213
-0.08377000668667149
-0.09657556248297908
-0.07315791420021536
-0.011102327663133292
-0.04907507932941977
0.11625277765605375
0.32025822989122854
0.41159595865392773
0.4921555331208821
0.13340677181582555
2.2562437466215566
2.4658842148377134
0.316201044782556
0.007045941752145302
-0.3199528326109862
0.43353010341349124
-0.1023095476996979
-0.09981884026471695
-0.10035371804727061
-0.09159326976904028
-0.08708221543359283
-0.06878611534530123
-0.04648330343857411
0.04641118694696406
0.21338885459220933
0.04151052174498175
-0.14299730792783158
-0.11677288635863128
-0.12376119510985406
-0.10620445994408395
0.89261602152055
0.5831067609988778
-0.031782754694608596
0.23793720672140017
0.14188665745951795
0.4592261061068318
0.22203848098082826
0.06507796699728492
-0.09857956794858345
0.3884750777202487
-0.030156942438425705
-0.4175139088450141
-0.15089691667409633
0.03283307489492058
0.27463727441335795
-0.10461649295414473
-0.10806434632248595
-0.10490610193156345
-0.11263371909574853
-0.10508948353649677
-0.1129117505228664
-0.0822930062165998
-0.07287632478517997
0.8282370826629113
0.6979119990900534
-0.20066822435962872
-0.0979711670308875
-0.1424348295531166
-0.20985491953468963
-0.11468425977837284
0.32291998604911076
0.40046616035987853
0.5455847679292086
0.5182087427677788
-0.30079309657105174
0.37596233365094106
0.46729198944469064
-0.10188333045338699
-0.10167020731102666
-0.10038502890796051
-0.09788823854675194
-0.10072764797373635
-0.0973125372159088
-0.08622901541256148
-0.09351735548254744
-0.09022641066298367
-0.07755275575138833
-0.07432039420403914
-0.05635099744409401
-0.024297351235115863
-0.05648791947703945
0.02301212412060798
0.08694559797828134
0.26873183033780224
0.17053225418635012
-0.6002055555256491
-0.540400401820938
2.3324891610305665
1.995213323703341
-0.014257358255227254
-0.23526584133958633
-0.1219607855521273
0.16889580909632138
-1.006428528816408
0.2657657157797679
0.18013718698294692
0.03905086594865878
0.10135564260067297
0.3473621975745054
-0.008684319444187776
0.39328239635323536
0.21971500681163503
0.3663367858563656
0.5347506766809504
0.7167242441777205
0.4231117937816478
0.4970539901841954
0.32210796456543234
0.21875178329699257
0.12751921381715253
0.053843932016248305
-0.001632289420660363
-0.04151191155064161
-0.06558852477114761
-0.04119317859995251
-0.080589186053304
-0.06759113277234462
-0.08430334731521523
-0.09009150162918099
-0.09402489191072738
-0.09918920923254379
-0.09583184572164588
-0.09922064608284582
-0.10139490965509958
-0.10184361020514705
-0.10108341549804252
0.01383935692007817
0.13970756573244886
0.3079784830519143
-0.2698286969773748
0.09687450540465595
0.6181302600909518
0.5377275131524913
2.8036412452533153
1.98832100137832
0.38716987918866197
0.4280201239664993
0.4775215942838563
0.004780602870166764
0.30695853228080816
-0.02464960142736289
-0.28242466287452617
0.5891893005315222
0.512402115199132
0.07569952319076455
-0.10322246035633369
-0.10472312727565267
-0.10084273201006977
-0.10382419512380117
-0.09306743180288073
-0.08988417115472432
-0.0716621431322084
-0.04160908275382044
0.30944238264525586
0.03395512403854893
1.2650001535191409
1.460233963301191
0.265593952156512
0.0901905006483608
0.18038623593961783
0.4148559104648707
-0.10536896235447173
-0.10433930005249555
-0.1101366588184875
-0.10448760294827601
-0.11189194719586017
-0.09790551172982316
-0.09883423321628279
-0.028031205036252532
0.14415472576217864
5.320999423523987
5.209113620693752
-0.012093327464159752
2.094004461102365
0.4859303617038405
-0.1026578214573076
-0.10312143453261964
-0.10135356154035267
0.40109114383528816
-0.09984342184097855
-0.10269515363957382
-0.10099102635380751
-0.09589104254705873
-0.09127527610624704
-0.09484443757976982
-0.0866706052109194
-0.07952305266772278
-0.06724861035058063
-0.06522696170435621
-0.04217311602228586
0.01113015435966012
0.4872496262961792
0.06049584216776029
0.16281780513830085
0.24343739591994573
-0.06948058667620069
0.2226634354175885