# vtk DataFile Version 1.0
2D Simulation C++
ASCII
DATASET UNSTRUCTURED_GRID
FIELD FieldData 1
NODES 1 2 int
348 601

POINTS 348 double
0.0 0.5 0.0
0.0 1.0 0.0
2.0 1.0 0.0
2.0 0.5 0.0
0.0 0.528801679611206 0.0
0.0 0.564507782459259 0.0
0.0 0.6110168099403381 0.0
0.0 0.6721802353858948 0.0
0.0 0.7528436183929443 0.0
0.0 0.8593378663063049 0.0
0.16666941344738007 1.0 0.0
0.3333356976509094 1.0 0.0
0.5000020265579224 1.0 0.0
0.6666678786277771 1.0 0.0
0.8333337306976318 1.0 0.0
1.0 1.0 0.0
1.1666662693023682 1.0 0.0
1.3333321809768677 1.0 0.0
1.4999979734420776 1.0 0.0
1.6666642427444458 1.0 0.0
1.8333306312561035 1.0 0.0
2.0 0.8593378663063049 0.0
2.0 0.7528436183929443 0.0
2.0 0.6721802353858948 0.0
2.0 0.6110168099403381 0.0
2.0 0.564507782459259 0.0
2.0 0.528801679611206 0.0
0.029850948601961136 0.5 0.0
0.05970168858766556 0.5 0.0
0.08955242484807968 0.5 0.0
0.1194031685590744 0.5 0.0
0.14925390481948853 0.5 0.0
0.17910465598106384 0.5 0.0
0.20895539224147797 0.5 0.0
0.2388061285018921 0.5 0.0
0.2686568796634674 0.5 0.0
0.29850760102272034 0.5 0.0
0.32835835218429565 0.5 0.0
0.35820910334587097 0.5 0.0
0.3880598247051239 0.5 0.0
0.4179105758666992 0.5 0.0
0.44776129722595215 0.5 0.0
0.47761204838752747 0.5 0.0
0.5074627995491028 0.5 0.0
0.5373135209083557 0.5 0.0
0.5671642422676086 0.5 0.0
0.5970150232315063 0.5 0.0
0.6268657445907593 0.5 0.0
0.6567164659500122 0.5 0.0
0.6865672469139099 0.5 0.0
0.7164179682731628 0.5 0.0
0.7462686896324158 0.5 0.0
0.7761194705963135 0.5 0.0
0.8059701919555664 0.5 0.0
0.8358209133148193 0.5 0.0
0.865671694278717 0.5 0.0
0.89552241563797 0.5 0.0
0.9253731369972229 0.5 0.0
0.9552239179611206 0.5 0.0
0.9850746393203735 0.5 0.0
1.0149253606796265 0.5 0.0
1.0447760820388794 0.5 0.0
1.0746268033981323 0.5 0.0
1.1044776439666748 0.5 0.0
1.1343283653259277 0.5 0.0
1.1641790866851807 0.5 0.0
1.1940298080444336 0.5 0.0
1.2238805294036865 0.5 0.0
1.2537312507629395 0.5 0.0
1.2835819721221924 0.5 0.0
1.3134328126907349 0.5 0.0
1.3432835340499878 0.5 0.0
1.3731342554092407 0.5 0.0
1.4029849767684937 0.5 0.0
1.4328356981277466 0.5 0.0
1.4626864194869995 0.5 0.0
1.492537260055542 0.5 0.0
1.522387981414795 0.5 0.0
1.5522387027740479 0.5 0.0
1.5820894241333008 0.5 0.0
1.6119401454925537 0.5 0.0
1.6417908668518066 0.5 0.0
1.6716417074203491 0.5 0.0
1.701492428779602 0.5 0.0
1.731343150138855 0.5 0.0
1.761193871498108 0.5 0.0
1.7910445928573608 0.5 0.0
1.8208953142166138 0.5 0.0
1.8507460355758667 0.5 0.0
1.8805968761444092 0.5 0.0
1.910447597503662 0.5 0.0
1.940298318862915 0.5 0.0
1.970149040222168 0.5 0.0
1.7358819246292114 0.7499510645866394 0.0
0.2656642198562622 0.7486277222633362 0.0
0.49981194734573364 0.737183690071106 0.0
0.74151611328125 0.7359843254089355 0.0
0.9774143695831299 0.7371892929077148 0.0
1.201690912246704 0.7367381453514099 0.0
1.447761058807373 0.7383390665054321 0.0
1.8591958284378052 0.6421071290969849 0.0
0.14080412685871124 0.6421071290969849 0.0
1.588537573814392 0.6783608794212341 0.0
0.2553686201572418 0.6221352219581604 0.0
1.7466964721679688 0.6278358101844788 0.0
0.38199201226234436 0.6273008584976196 0.0
0.5013589859008789 0.6272794008255005 0.0
0.6207823157310486 0.6272526383399963 0.0
0.7401852607727051 0.627252459526062 0.0
0.8595882654190063 0.6272523999214172 0.0
0.9701492786407471 0.6212864518165588 0.0
1.0807102918624878 0.6272523999214172 0.0
1.2001131772994995 0.6272523999214172 0.0
1.3195161819458008 0.6272523999214172 0.0
1.4488563537597656 0.6310953497886658 0.0
1.9247323274612427 0.5706554055213928 0.0
0.07526770234107971 0.5706554055213928 0.0
1.5377081632614136 0.5910930037498474 0.0
1.6566967964172363 0.5934624075889587 0.0
1.8074009418487549 0.5708622932434082 0.0
0.1940300166606903 0.5737577676773071 0.0
1.0286364555358887 0.5665481686592102 0.0
1.14803946018219 0.5665481686592102 0.0
0.9116620421409607 0.5665481686592102 0.0
1.2674424648284912 0.5665481686592102 0.0
0.7922590970993042 0.5665481686592102 0.0
0.6728560328483582 0.5665482878684998 0.0
0.5534531474113464 0.5665481686592102 0.0
1.3892061710357666 0.5727682709693909 0.0
0.43402159214019775 0.5665869116783142 0.0
0.3146642744541168 0.5667200088500977 0.0
1.8656742572784424 0.5607567429542542 0.0
0.1343258023262024 0.5607567429542542 0.0
1.5970147848129272 0.5642029047012329 0.0
1.8783670663833618 0.7786769866943359 0.0
0.12163297086954117 0.7786769866943359 0.0
1.7164177894592285 0.562579333782196 0.0
1.4776118993759155 0.5620538592338562 0.0
1.5857784748077393 0.867691159248352 0.0
0.25373148918151855 0.5588531494140625 0.0
0.9701492786407471 0.5582930445671082 0.0
1.0895521640777588 0.5582930445671082 0.0
0.8507462739944458 0.5582930445671082 0.0
1.20895516872406 0.5582930445671082 0.0
0.7313433289527893 0.5582930445671082 0.0
1.3283581733703613 0.5582930445671082 0.0
0.6119403839111328 0.5582930445671082 0.0
0.49253740906715393 0.5582930445671082 0.0
0.37313446402549744 0.5582956075668335 0.0
0.36864349246025085 0.7376502752304077 0.0
0.602456271648407 0.7355343103408813 0.0
0.8441241383552551 0.7366551756858826 0.0
1.3355978727340698 0.7366551160812378 0.0
1.0895521640777588 0.7378703355789185 0.0
0.07051979005336761 0.6486480832099915 0.0
1.9294801950454712 0.6486480832099915 0.0
1.5086064338684082 0.6743985414505005 0.0
1.6785967350006104 0.6649783849716187 0.0
1.9543375968933105 0.5452249050140381 0.0
0.04566239193081856 0.5452249050140381 0.0
1.6567095518112183 0.5496091842651367 0.0
1.53738272190094 0.5491842031478882 0.0
0.91306072473526 0.8965699672698975 0.0
1.7782752513885498 0.5446287989616394 0.0
1.4163299798965454 0.5447981357574463 0.0
0.4287482798099518 0.8945969939231873 0.0
1.2610714435577393 0.8950135707855225 0.0
0.4313095211982727 0.6832783222198486 0.0
0.31561949849128723 0.6858259439468384 0.0
1.029850721359253 0.6781684160232544 0.0
0.9082015752792358 0.6848641633987427 0.0
1.1492537260055542 0.6781684160232544 0.0
0.7886138558387756 0.678956151008606 0.0
1.2709345817565918 0.684736430644989 0.0
0.6685023903846741 0.6868807673454285 0.0
1.4007169008255005 0.6702371835708618 0.0
0.5483440160751343 0.6792802214622498 0.0
0.19808045029640198 0.6887137293815613 0.0
1.797759771347046 0.6853783130645752 0.0
0.6811949610710144 0.8757594227790833 0.0
1.0189321041107178 0.8474968671798706 0.0
0.7922950983047485 0.8446238040924072 0.0
1.3765455484390259 0.8590760827064514 0.0
1.1571698188781738 0.8478953838348389 0.0
1.8954496383666992 0.5359624624252319 0.0
1.8360060453414917 0.5359931588172913 0.0
0.10455036163330078 0.5359624624252319 0.0
0.16417928040027618 0.5353734493255615 0.0
0.5530290007591248 0.8422092199325562 0.0
0.2832632064819336 0.5367912650108337 0.0
0.22469767928123474 0.5394234657287598 0.0
0.9405550956726074 0.5357381105422974 0.0
0.9997434020042419 0.5357381105422974 0.0
1.0600273609161377 0.5365630984306335 0.0
1.1191463470458984 0.5357381105422974 0.0
0.8802711367607117 0.5365630984306335 0.0
0.8211521506309509 0.5357381105422974 0.0
1.2385493516921997 0.5357381105422974 0.0
1.179430365562439 0.5365630984306335 0.0
0.7608681321144104 0.5365630984306335 0.0
0.7017492055892944 0.5357381105422974 0.0
1.2988333702087402 0.5365630984306335 0.0
1.357560396194458 0.5390686392784119 0.0
0.5823462605476379 0.5357381105422974 0.0
0.6414651870727539 0.5365630984306335 0.0
0.5220622420310974 0.5365630984306335 0.0
0.4629422128200531 0.535739541053772 0.0
0.3435409665107727 0.5357455015182495 0.0
0.4026572108268738 0.5365669131278992 0.0
0.21006634831428528 0.8590372204780579 0.0
1.7943172454833984 0.8627070188522339 0.0
0.06134982034564018 0.7191494703292847 0.0
1.938650131225586 0.7191494703292847 0.0
1.634666085243225 0.7584379315376282 0.0
0.3355695903301239 0.8387951850891113 0.0
1.537941336631775 0.7633647918701172 0.0
1.9670078754425049 0.574067234992981 0.0
0.032992132008075714 0.574067234992981 0.0
1.6862140893936157 0.5314788222312927 0.0
1.6272135972976685 0.5317342281341553 0.0
1.5077245235443115 0.5309156775474548 0.0
1.5668202638626099 0.5316618084907532 0.0
1.7466963529586792 0.5298213958740234 0.0
1.4473658800125122 0.5297333002090454 0.0
1.804386019706726 0.5275400876998901 0.0
1.9283779859542847 0.5282225012779236 0.0
1.8656879663467407 0.5267112255096436 0.0
0.13432854413986206 0.5271331071853638 0.0
0.07162196189165115 0.5282225012779236 0.0
0.25373148918151855 0.527070939540863 0.0
0.19419340789318085 0.5297109484672546 0.0
0.31349387764930725 0.5272363424301147 0.0
0.37313446402549744 0.5270199179649353 0.0
0.4329495429992676 0.5274069309234619 0.0
0.49253740906715393 0.5270196795463562 0.0
0.5523557066917419 0.5274024605751038 0.0
1.3898069858551025 0.5277745127677917 0.0
1.3283581733703613 0.5270196795463562 0.0
0.6119403839111328 0.5270196795463562 0.0
1.2685397863388062 0.5274024605751038 0.0
0.6717586517333984 0.5274024605751038 0.0
0.7313433289527893 0.5270196795463562 0.0
1.20895516872406 0.5270196795463562 0.0
0.7911616563796997 0.5274024605751038 0.0
0.8507462739944458 0.5270196795463562 0.0
1.1491369009017944 0.5274024605751038 0.0
1.0895521640777588 0.5270196795463562 0.0
0.9105646014213562 0.5274024605751038 0.0
0.9701492786407471 0.5270196795463562 0.0
1.0297338962554932 0.5274024605751038 0.0
1.4776118993759155 0.5259945392608643 0.0
1.597015619277954 0.5255197882652283 0.0
1.7164177894592285 0.525999903678894 0.0
1.6834615468978882 0.8477573990821838 0.0
1.5822722911834717 0.6086509227752686 0.0
0.20459823310375214 0.6270732283592224 0.0
1.8037469387054443 0.6209055185317993 0.0
0.09990309923887253 0.8589919805526733 0.0
1.9000968933105469 0.8589919805526733 0.0
1.75603187084198 0.5789161324501038 0.0
0.10896337777376175 0.5982794761657715 0.0
1.8910366296768188 0.5982794761657715 0.0
1.4950518608093262 0.605266273021698 0.0
1.7049394845962524 0.6007562279701233 0.0
1.4387125968933105 0.5775743722915649 0.0
1.489302158355713 0.851039469242096 0.0
0.15732239186763763 0.5961292386054993 0.0
1.8436260223388672 0.5944437384605408 0.0
0.4399496018886566 0.6259797215461731 0.0
1.022565245628357 0.6257523894309998 0.0
[...]
POINT_DATA 348
SCALARS Psi double
LOOKUP_TABLE default
1.087898474505919
1.0
1.0
1.0766684692566444
1.087788006230875
1.0875451104726959
1.0891468084440858
1.0938728055775007
1.1033510760286005
1.1418217491790543
1.0
1.0
1.0
1.0
1.0
1.0
1.0
1.0
1.0
1.0
1.0
1.1342685463948647
1.094275124240967
1.084475035483184
1.0798819113724087
1.077714553798347
1.0768590541920287
1.0879812890902067
1.0867118737203665
1.084822304727301
1.082420799961277
1.0794798105856378
1.0760237479536177
1.072121873732834
1.067867293876566
1.0633834607860388
1.0587584764216083
1.0540920620728191
1.0494630468909558
1.0449565223378618
1.0406243933955646
1.0364944248356243
1.032599619288093
1.0289672844690578
1.025610940001576
1.02251838451185
1.019694496826324
1.0171381906735393
1.014844862038213
1.0127905844151897
1.010968779186524
1.0093691715629378
1.0079826246132704
1.0067887562643667
1.0057803759758348
1.0049494028548913
1.0042890027962428
1.0037866646418134
1.0034382993190816
1.0032411995660002
1.003193444264004
1.003291448178433
1.0035346311375324
1.0039285742433748
1.0044762170590134
1.0051807818982752
1.0060462357462054
1.007085952907025
1.0083062724644236
1.0097144700031675
1.0113162605269315
1.0131345528458344
1.0151740580343709
1.017430970049364
1.0199346785756152
1.0226764930901513
1.0256555034855561
1.0288722148436196
1.03232406825158
1.035990389185021
1.0398395377927874
1.043833844027078
1.0479255363452409
1.052054303256231
1.0561439082955988
1.0601072579918012
1.063838174018797
1.0672402127748224
1.0702047587100607
1.072629192736778
1.074475647686302
1.0757491274576898
1.0764613444357811
1.046786711109749
1.0518854974995298
1.0201199545674673
1.0058086488405265
1.001673089073233
1.0036439487144677
1.0139159671409301
1.0733682570847234
1.0821127466395337
1.0311074484642182
1.0635343109924524
1.0566896057905462
1.0425530035947301
1.0268241535057556
1.015624362388418
1.0084497788026203
1.0043633587493666
1.0028457867716856
1.0030421303403634
1.005401094404005
1.0102988518924505
1.0190457071421481
1.0762815970208397
1.0856765450456403
1.029251343432492
1.0445295116975026
1.0659083918864374
1.074034191606715
1.0030690600137029
1.0045811566254867
1.003818930540986
1.008611711426921
1.0070315646224766
1.0132384594371613
1.0232041804416931
1.0157540903958524
1.0374860201990463
1.0554784179709245
1.0719808302860114
1.0811616401264998
1.0372069616075101
1.078243879475635
1.0863580194891453
1.0536728172764978
1.023573473517268
1.0130768691662633
1.0652546100949476
1.0031970524730178
1.0035798881935698
1.0051657431279135
1.0063427129972917
1.00984779685555
1.0118732770505494
1.0179114426599651
1.0300947466121235
1.0464794892479883
1.0356947694515577
1.0123546184430516
1.0031387426964269
1.0079927420496302
1.0019375177825511
1.0902638557374287
1.080784317872815
1.0226367967517516
1.0445797931518377
1.0766486529924728
1.0869297742305135
1.0454993564028205
1.030180404416086
1.0004324779457152
1.0622233994946009
1.0182593122279615
1.0105238643737668
1.0014801910947346
1.032130051841008
1.0494026491767936
1.0022866924228748
1.0028325832447558
1.0035487593324055
1.005618481713383
1.0068375194662347
1.0105844966847444
1.0140169693415901
1.0195846246205817
1.0716959174673102
1.0635402041394355
1.003369088874759
1.0005515289266032
1.0019091530081197
1.0044737988317916
1.0011770794818962
1.0738826786534985
1.068932668685394
1.0837058532098658
1.07785777886479
1.0080518454116594
1.0609556648015988
1.0698224662033158
1.0035449095528821
1.003156898113387
1.0033514355710775
1.0041283491621926
1.0045480023594906
1.0061844091927759
1.0075849559331493
1.0055370177879162
1.0085721333130901
1.0117220718823814
1.0104033157148855
1.0139270178227973
1.0208731770420287
1.0158334216377252
1.0270743050415658
1.034252173226319
1.051505429193883
1.0425620823573998
1.039556706561153
1.0362112339411222
1.0980435920039129
1.0884747659977334
1.030222629367309
1.0266177484462184
1.0193764487887345
1.0777981806244419
1.0869960836179269
1.0498144934644764
1.041708105056087
1.0271153359102463
1.0339262736258163
1.058149944639414
1.0211277923836988
1.0654241818171086
1.0754785720491224
1.07158965552479
1.0810291667557035
1.0859076136182284
1.0655604214028815
1.0740717861641
1.056284295853879
1.0470323712778835
1.0383626599147868
1.0306044752124583
1.023898083915263
1.016320485811627
1.0121235364305876
1.018279258700552
1.0089275203721828
1.0137006778721875
1.010077578126786
1.0065003902887664
1.0073102832350704
1.0053049710572797
1.0047733073656684
1.003684305508311
1.0039874088494447
1.0032948803011479
1.0031996899315259
1.0240373575829027
1.0377827111537778
1.0540276655971712
1.0247321279254593
1.0340237284795033
1.0720977954053774
1.065417477667316
1.0766798885028086
1.0694555700113677
1.0590427058657002
1.0841870038584454
1.0751055971259487
1.0242340643880625
1.0512398238739742
1.0196470454202333
1.0091319940554684
1.07906052942582
1.0704032401573667
1.0344440063442957
1.0027017717232931
1.0033116066653656
1.0039833364085802
1.0061442472404134
1.0075903524984613
1.0117379897082452
1.0131967721968667
1.0208948219763423
1.0530712580073507
1.0269044500744056
1.0769456125866206
1.085352198225341
1.0490327200726133
1.0329780828114246
1.041576912820203
1.0531510677116245
1.0023830257252806
1.002669318805732
1.003941891133651
1.0050219755394507
1.0079147626328127
1.0097441058479284
1.014474178615148
1.025510829552023
1.0411378679621535
1.1079720339972992
1.0992860060360785
1.0766662395483488
1.0879553704915923
1.060763065408411
1.0029734870243086
1.00325157573689
1.0031706622359422
1.0612209313493604
1.003752708678467
1.0043770222429096
1.0056003462581196
1.0053642798870457
1.0069008653554976
1.0083446693184133
1.0107080771129613
1.0101583380857047
1.012799059173119
1.0154620518406485
1.0192794234283094
1.0265465388355426
1.068074896958595
1.0320716499156912
1.042010080388031
1.0488854790191868
1.0174362726640103
1.0457873258268346
1.030481826843188
1.0386471657761427
1.0014570165754424
1.0217583110289163
1.0389659103822095
1.0837777927920298
1.0744046642619012
1.0002569121773375
1.028206227624294
1.0692428658326432
1.078109347538557
1.0039401956853715
1.0875215093190762
1.0771331067684868
1.087213640991448
1.0783251134840635
1.069063875364848
1.0624278431759815
1.062006016573453
1.0185975169905495
1.0010538007721423
1.0163453081958298
1.006591681752714
1.0761908357874153
1.087210488862868
1.0528187222834888
1.0469710938931724

SCALARS Omega double
LOOKUP_TABLE default
4.100276591395772
-10.327730795436223
-14.268649563397936
0.13217857057054494
4.49251542646898
-2.6837945533079663
-4.473557660634798
3.542292223091456
1.0314781535196569
20.842645460337362
-8.18867520115416
-0.4094725223251918
-0.8985275653939983
-0.2342139594277064
-0.11369097867148327
-0.030612111190309186
-0.11116900932427369
-0.18643504131195068
-0.6569892800266101
-0.6110339256923609
-6.115745385051025
17.943670585109516
3.512463678239326
-1.0379081270118697
0.14534828365033814
0.033512257695515905
-0.32203140248005474
2.1113617298256897
1.0918367791703276
0.7143021740896693
0.5849518485731062
0.532723942493026
0.5070780229781485
0.4781901953453772
0.4415368869511216
0.39741178056712256
0.34773268551745035
0.2962463956645607
0.2449789202427983
0.19618313349201727
0.15080900292465735
0.10952048225675567
0.07261347350645501
0.0403334535791926
0.012569702993159433
-0.011155351329505599
-0.031081819755271294
-0.04752459062702484
-0.060811397862114855
-0.07154132509413723
-0.08001355261631994
-0.08658310712076388
-0.09151389784988209
-0.0952053014985014
-0.09785149337471906
-0.09967300325187528
-0.10081314043679226
-0.10146383312951668
-0.1017095867210796
-0.10162686877426087
-0.10124796093645787
-0.10059290948851456
-0.09964829274345074
-0.09834303166573452
-0.09661228012436798
-0.0943427239495794
-0.09142625853735042
-0.08763222668421664
-0.08279843107404118
-0.07668844523071823
-0.06909527064192073
-0.05954731729095922
-0.047802903249898304
-0.033664973885399754
-0.01647275171215046
0.003910499114088261
0.027743081704775307
0.055309120537497564
0.08677693338050937
0.12203690492207807
0.16057613136086812
0.20168960504350458
0.24401350578084424
0.28593508886975927
0.3247869460039771
0.35760137009319193
0.37954715493407837
0.3852480049244041
0.37065562196722723
0.3300023908605383
0.2610341029399238
0.16510919313852362
0.066350786474223
0.31510667870974196
0.33936277925755587
-0.11646412749210756
-0.1309118566743993
-0.10570544244125323
-0.11366535237415523
-0.12385496956467948
0.7178328075969874
0.8448250621504956
0.04691930011488155
0.46988162820802487
0.4081247471793677
0.1669496075583144
0.0028975471754708972
-0.07395212630502161
-0.10007944145236593
-0.10519634428516379
-0.10385548595546645
-0.10230780758076152
-0.0984363174929394
-0.08460653283892766
-0.040685624540548276
0.3065098106910425
0.09488991775562894
0.0518625084297853
0.21730105434220784
0.439917410087008
0.528059090925332
-0.10168073739793035
-0.09715105264433407
-0.10234065547088556
-0.08372762102502627
-0.09659159909581556
-0.07320444395679193
-0.011171932718823895
-0.04893133638158864
0.11627850663342233
0.3207472807166263
0.4093844304730687
0.49085197054212226
0.13352109534945003
2.249060120061613
2.5274009286828454
0.31560108615769195
0.007244176733320748
-0.3187831354449047
0.43428948388204897
-0.10231092622097025
-0.09981692806394735
-0.1003616119157762
-0.09157790155468902
-0.08711259275192738
-0.06873062135333777
-0.04655457285686989
0.04633405892945328
0.21351020278407665
0.040642050454338594
-0.14344316639387242
-0.11680355787943668
-0.12342029435510635
-0.1061934669341452
0.9676272328609716
0.5747828401966397
-0.03102886952371481
0.23799457140300728
0.14049951445138611
0.45038740922760245
0.2219093738206592
0.06523625353625699
-0.09857906644503057
0.3875232242055639
-0.030069434434351804
-0.4188839881074311
-0.15081365778142544
0.03255470394300978
0.2753749214095109
-0.10461616328962955
-0.10807518480272237
-0.10488149130460785
-0.11268902260602819
-0.10497213967847527
-0.11310599821848775
-0.0819065312012821
-0.07324263405399922
0.8361155033640517
0.6923071888276517
-0.2008834015345141
-0.09796264605001218
-0.14249513301142022
-0.20891313998486008
-0.11464430760702957
0.3216035002334089
0.39908267500536165
0.5432661528300082
0.5181516061359008
-0.3016400703848909
0.3762588670955943
0.46768784739587127
-0.10188407620124221
-0.1016707034967437
-0.1003842107954449
-0.09788440007478337
-0.10072930314604349
-0.09731626898262333
-0.08620622829720076
-0.09350530320938814
-0.09023276549138218
-0.07756313163708212
-0.0742698117035987
-0.056273975081782626
-0.024308275533404235
-0.05649859200333486
0.023020098190792027
0.08697762293827332
0.2689062158620528
0.17062922353084517
-0.6191909294917893
-0.5147470841169417
2.3294452251188216
1.9777754326562325
-0.011509735355373873
-0.2381694070023193
-0.12062838988453828
0.1669067765734773
-1.0217322041323005
0.26552628033290027
0.18017280045772519
0.03920614717661505
0.10148348527307371
0.34662514697215635
-0.008566668969802528
0.392091632569643
0.21860644186078884
0.36523518411926864
0.5338230402323177
0.712493998182039
0.4234154728675713
0.49727144014903024
0.322271618881646
0.21880357136849582
0.12752218731503728
0.05381235952123548
-0.0016606519171787838
-0.04142765044558029
-0.06554031119315562
-0.04122242055244631
-0.08056138243513904
-0.06760899316172632
-0.08431587013576668
-0.0900782084110244
-0.09403104486050312
-0.09919241075161765
-0.09582606824280225
-0.09921886260667179
-0.1013961046771495
-0.10184407580562936
-0.101083322958794
0.013962250849932077
0.13979943912243645
0.3076025263571269
-0.2638912731574038
0.0972591333911106
0.6218180596335449
0.5337798651870804
2.903995377801652
2.1556482072658505
0.3856460207454517
0.4315959595357072
0.473407382237654
0.005161758004397057
0.306237062543215
-0.02441038489747614
-0.2810106959150072
0.5921227818732631
0.50858952502223
0.07552629316161015
-0.10322296887722011
-0.10472893921770146
-0.10082993819178182
-0.10385718316132002
-0.09299651549742512
-0.08998797085799282
-0.07147385155951815
-0.04182883895734892
0.31016150189178715
0.03413599037446394
1.2523254612617893
1.4785748227905084
0.2651621003447165
0.09036934035612983
0.1803309547058702
0.4136173790001911
-0.10537196689882412
-0.10433475528585978
-0.11016426596220016
-0.10444550632397692
-0.11200116001567446
-0.09772746947773342
-0.09915262606969605
-0.028490043251659415
0.14423106337713537
5.59834230259198
5.403331021629099
-0.0128557612997701
2.0975690307105705
0.4888528703124231
-0.10265928973081173
-0.10312383634469671
-0.10135194605787898
0.4019968996810619
-0.09983805538468674
-0.10270297647357468
-0.10100566888384863
-0.09587048404937717
-0.09124247914467983
-0.09487819303118439
-0.08672286982791433
-0.07944071603567142
-0.06713690872745239
-0.0653183084903696
-0.0422861785008567
0.010999425356994294
0.48867830817113334
0.060394918391878785
0.16287202191331715
0.24370900185572533
-0.06902117037214421
0.22262509022682814
0.06938332803356623
0.1491412761468669
-0.10985028243038415
-0.16829937846687096
0.1522491060044298
0.38217091777784107
0.37518986524019465
-0.08900149604144734
0.03241088177726115
0.4400053669957859
0.5321896093696646
-0.1340929809049053
0.4668976837179615
0.01121978928102039
-0.5101373601020667
0.3408516063694775
1.0203185730901558
0.9271598518390971
0.3733238666503003
-0.026222501830686994
-0.17256911002201777
-0.05296720420531161
-0.16617295466227602
0.11856080318479065
1.2482118262422268
0.5729328676153755
-1.2167721124875233

SCALARS Vx_analytic double
LOOKUP_TABLE default
4.100276591395772
-10.327730795436223
-14.268649563397936
0.1321063796461351
4.49251542646898
-2.6837945533079663
-4.473557660634798
3.542292223091456
1.0314781535196569
20.842645460337362
-8.18867520115416
-0.4094725223251918
-0.8985275653939983
-0.2342139594277064
-0.11369097867148327
-0.030612111190309186
-0.11116900932427369
-0.18643504131195068
-0.6569892800266098
-0.6110339256923609
-6.115745385051025
17.943670585109516
3.5132646958976306
-1.0157705221643563
0.14755553987797812
0.034519698996971625
-0.32007619909035034
2.1113617298256897
1.0918367791703276
0.7143021740896693
0.5849518485731062
0.532723942493026
0.5070780229781485
0.4781901953453772
0.4415368869511216
0.39741178056712256
0.34773268551745035
0.2962463956645607
0.2449789202427983
0.19618313349201727
0.15080900292465735
0.10952048225675567
0.07261347350645501
0.0403334535791926
0.012569702993159433
-0.011155351329505599
-0.031081819755271294
-0.04752459062702484
-0.060811397862114855
-0.07154132509413723
-0.08001355261631994
-0.08658310712076388
-0.09151389784988209
-0.0952053014985014
-0.09785149337471906
-0.09967300325187528
-0.10081314043679226
-0.10146383312951668
-0.1017095867210796
-0.10162686877426087
-0.10124782765043093
-0.10059294204182959
-0.09964845504926569
-0.09834350190098838
-0.09661312131868686
-0.09434451871850204
-0.09142861870448545
-0.08763597043759398
-0.08280334278881761
-0.07669661379629239
-0.06910496134817395
-0.05956144851383533
-0.04782298753998886
-0.03367246039635596
-0.016485391452321866
0.0038884095098307824
0.02772151838476048
0.05529747411447071
0.08676827989986419
0.12202034388199748
0.16057453055742454
0.20170954643106506
0.24406643450334403
0.2860015838006844
0.3248965446907969
0.35771286937453484
0.37972785692923383
0.38560071590683614
0.37102831606710635
0.33040741310235894
0.26136830543635686
0.16535185060580088
0.06630766750206703
0.30728902821796206
0.33717061452092334
-0.11573714656012103
-0.13079943948010134
-0.10570535512388282
-0.11372780229946347
-0.12456353024137234
0.7269997387825792
0.8347617254271315
0.04600727050654893
0.46799101154749206
0.41050734696061963
0.16692146289102974
0.0031366688239519037
-0.07378379845264034
-0.10001567391895125
-0.10518127231490024
-0.10385296486812678
-0.10231052803068003
-0.09846832164141367
-0.08473012843982838
-0.04101671792379974
0.3086317366367409
0.10164156815111196
0.05153787112989435
0.21754434337180834
0.4422804079350421
0.5270414712544228
-0.10168036655223464
-0.09715932322650073
-0.10233728464400285
-0.0837700066865937
-0.09657556248287694
-0.07315791420012885
-0.011102327663068155
-0.049075079329365015
0.11625277765609651
0.32025822989125285
0.41159595865397963
0.4921555331208651
0.1334067718158462
2.2562437466215477
2.4658842148377005
0.31620104478256933
0.007045941752184989
-0.31995283261099616
0.43353010341350817
-0.10230954769958707
-0.09981884026461306
-0.10035371804716231
-0.09159326976895162
-0.08708221543349633
-0.0687861153452329
-0.046483303438496826
0.04641118694701852
0.21338885459224244
0.04151052174497815
-0.1429973079278191
-0.11677288635860628
-0.12376119510984256
-0.1062044599440598
0.8926160215205419
0.5831067609988833
-0.03178275469459297
0.23793720672140323
0.1418866574596625
0.4592261061066263
0.2220384809808439
0.06507796699731543
-0.09857956794865162
0.3884750777202706
-0.030156942438372806
-0.41751390884505574
-0.15089691667413838
0.03283307489493752
0.2746372744133645
-0.10461649295408369
-0.10806434632242724
-0.10490610193150962
-0.11263371909569193
-0.1050894835364577
-0.11291175052282391
-0.08229300621657083
-0.07287632478514809
0.8282370826629134
0.6979119990900539
-0.20066822435968404
-0.09797116703092729
-0.1424348295531588
-0.20985491953471674
-0.11468425977840745
0.3229199860492058
0.40046616035992266
0.5455847679291496
0.5182087427677735
-0.3007930965710872
0.375962333650963
0.4672919894447034
-0.1018833304532712
-0.1016702073109121
-0.1003850289078496
-0.09788823854664684
-0.100727647973622
-0.09731253721579816
-0.08622901541247378
-0.09351735548245042
-0.09022641066287931
-0.077552755751292
-0.07432039420396241
-0.05635099744402883
-0.02429735123504078
-0.05648791947695332
0.023012124120670985
0.08694559797833264
0.26873183033783277
0.17053225418639023
-0.6002055555256757
-0.5404004018209465
2.3324891610305643
1.9952133237033096
-0.014257358255232187
-0.23526584133961445
-0.1219607855521311
0.1688958090962833
-1.0064285288164492
0.26576571577978314
0.18013718698296607
0.039050865948695626
0.10135564260069997
0.34736219757452336
-0.008684319444139665
0.39328239635326684
0.21971500681179337
0.36633678585643353
0.5347506766809239
0.7167242441775801
0.42311179378166597
0.49705399018420077
0.3221079645654586
0.21875178329702819
0.12751921381719855
0.05384393201630579
-0.001632289420590706
-0.041511911550581926
-0.06558852477107617
-0.04119317859987121
-0.08058918605322123
-0.06759113277225254
-0.084303347315114
-0.09009150162908772
-0.09402489191061882
-0.09918920923243028
-0.09583184572154385
-0.09922064608273683
-0.1013949096549834
-0.10184361020503085
-0.10108341549792867
0.013839356920120779
0.13970756573247223
0.30797848305193
-0.2698286969773807
0.09687450540467388
0.6181302600909598
0.5377275131525044
2.803641245253289
1.9883210013783188
0.3871698791886763
0.4280201239664853
0.4775215942838947
0.0047806028701973275
0.30695853228081765
-0.024649601427318164
-0.28242466287454276
0.5891893005315226
0.5124021151991627
0.07569952319079765
-0.10322246035624642
-0.10472312727556365
-0.10084273200999153
-0.10382419512371792
-0.09306743180281749
-0.0898841711546541
-0.07166214313216093
-0.04160908275376821
0.30944238264527274
0.03395512403858216
1.265000153519136
1.4602339633011903
0.26559395215652504
0.09019050064838553
0.18038623593963427
0.41485591046487114
-0.10536896235440706
-0.10433930005243812
-0.11013665881842725
-0.1044876029482271
-0.11189194719580707
-0.09790551172978779
-0.09883423321624288
-0.028031205036226865
0.14415472576219118
5.320999423523966
5.209113620693735
-0.01209332746370876
2.094004461101826
0.4859303617038467
-0.10265782145720434
-0.10312143453251649
-0.10135356154025425
0.4010911438353064
-0.09984342184088373
-0.10269515363947203
-0.1009910263537078
-0.09589104254697323
-0.09127527610616792
-0.09484443757967753
-0.08667060521083236
-0.07952305266765607
-0.06724861035052158
-0.06522696170428083
-0.042173116022218
0.011130154359714308
0.4872496262961923
0.060495842167806436
0.1628178051383344
0.24343739591997318
-0.06948058667618039
0.22266343541760442
0.0692583377022958