# vtk DataFile Version 1.0
2D Simulation C++
ASCII
DATASET UNSTRUCTURED_GRID
FIELD FieldData 1
NODES 1 2 int
348 601

POINTS 348 double
0.0 0.5 0.0
0.0 1.0 0.0
2.0 1.0 0.0
2.0 0.5 0.0
0.0 0.528801679611206 0.0
0.0 0.564507782459259 0.0
0.0 0.6110168099403381 0.0
0.0 0.6721802353858948 0.0
0.0 0.7528436183929443 0.0
0.0 0.8593378663063049 0.0
0.16666941344738007 1.0 0.0
0.3333356976509094 1.0 0.0
0.5000020265579224 1.0 0.0
0.6666678786277771 1.0 0.0
0.8333337306976318 1.0 0.0
1.0 1.0 0.0
1.1666662693023682 1.0 0.0
1.3333321809768677 1.0 0.0
1.4999979734420776 1.0 0.0
1.6666642427444458 1.0 0.0
1.8333306312561035 1.0 0.0
2.0 0.8593378663063049 0.0
2.0 0.7528436183929443 0.0
2.0 0.6721802353858948 0.0
2.0 0.6110168099403381 0.0
2.0 0.564507782459259 0.0
2.0 0.528801679611206 0.0
0.029850948601961136 0.5 0.0
0.05970168858766556 0.5 0.0
0.08955242484807968 0.5 0.0
0.1194031685590744 0.5 0.0
0.14925390481948853 0.5 0.0
0.17910465598106384 0.5 0.0
0.20895539224147797 0.5 0.0
0.2388061285018921 0.5 0.0
0.2686568796634674 0.5 0.0
0.29850760102272034 0.5 0.0
0.32835835218429565 0.5 0.0
0.35820910334587097 0.5 0.0
0.3880598247051239 0.5 0.0
0.4179105758666992 0.5 0.0
0.44776129722595215 0.5 0.0
0.47761204838752747 0.5 0.0
0.5074627995491028 0.5 0.0
0.5373135209083557 0.5 0.0
0.5671642422676086 0.5 0.0
0.5970150232315063 0.5 0.0
0.6268657445907593 0.5 0.0
0.6567164659500122 0.5 0.0
0.6865672469139099 0.5 0.0
0.7164179682731628 0.5 0.0
0.7462686896324158 0.5 0.0
0.7761194705963135 0.5 0.0
0.8059701919555664 0.5 0.0
0.8358209133148193 0.5 0.0
0.865671694278717 0.5 0.0
0.89552241563797 0.5 0.0
0.9253731369972229 0.5 0.0
0.9552239179611206 0.5 0.0
0.9850746393203735 0.5 0.0
1.0149253606796265 0.5 0.0
1.0447760820388794 0.5 0.0
1.0746268033981323 0.5 0.0
1.1044776439666748 0.5 0.0
1.1343283653259277 0.5 0.0
1.1641790866851807 0.5 0.0
1.1940298080444336 0.5 0.0
1.2238805294036865 0.5 0.0
1.2537312507629395 0.5 0.0
1.2835819721221924 0.5 0.0
1.3134328126907349 0.5 0.0
1.3432835340499878 0.5 0.0
1.3731342554092407 0.5 0.0
1.4029849767684937 0.5 0.0
1.4328356981277466 0.5 0.0
1.4626864194869995 0.5 0.0
1.492537260055542 0.5 0.0
1.522387981414795 0.5 0.0
1.5522387027740479 0.5 0.0
1.5820894241333008 0.5 0.0
1.6119401454925537 0.5 0.0
1.6417908668518066 0.5 0.0
1.6716417074203491 0.5 0.0
1.701492428779602 0.5 0.0
1.731343150138855 0.5 0.0
1.761193871498108 0.5 0.0
1.7910445928573608 0.5 0.0
1.8208953142166138 0.5 0.0
1.8507460355758667 0.5 0.0
1.8805968761444092 0.5 0.0
1.910447597503662 0.5 0.0
1.940298318862915 0.5 0.0
1.970149040222168 0.5 0.0
1.7358819246292114 0.7499510645866394 0.0
0.2656642198562622 0.7486277222633362 0.0
0.49981194734573364 0.737183690071106 0.0
0.74151611328125 0.7359843254089355 0.0
0.9774143695831299 0.7371892929077148 0.0
1.201690912246704 0.7367381453514099 0.0
1.447761058807373 0.7383390665054321 0.0
1.8591958284378052 0.6421071290969849 0.0
0.14080412685871124 0.6421071290969849 0.0
1.588537573814392 0.6783608794212341 0.0
0.2553686201572418 0.6221352219581604 0.0
1.7466964721679688 0.6278358101844788 0.0
0.38199201226234436 0.6273008584976196 0.0
0.5013589859008789 0.6272794008255005 0.0
0.6207823157310486 0.6272526383399963 0.0
0.7401852607727051 0.627252459526062 0.0
0.8595882654190063 0.6272523999214172 0.0
0.9701492786407471 0.6212864518165588 0.0
1.0807102918624878 0.6272523999214172 0.0
1.2001131772994995 0.6272523999214172 0.0
1.3195161819458008 0.6272523999214172 0.0
1.4488563537597656 0.6310953497886658 0.0
1.9247323274612427 0.5706554055213928 0.0
0.07526770234107971 0.5706554055213928 0.0
1.5377081632614136 0.5910930037498474 0.0
1.6566967964172363 0.5934624075889587 0.0
1.8074009418487549 0.5708622932434082 0.0
0.1940300166606903 0.5737577676773071 0.0
1.0286364555358887 0.5665481686592102 0.0
1.14803946018219 0.5665481686592102 0.0
0.9116620421409607 0.5665481686592102 0.0
1.2674424648284912 0.5665481686592102 0.0
0.7922590970993042 0.5665481686592102 0.0
0.6728560328483582 0.5665482878684998 0.0
0.5534531474113464 0.5665481686592102 0.0
1.3892061710357666 0.5727682709693909 0.0
0.43402159214019775 0.5665869116783142 0.0
0.3146642744541168 0.5667200088500977 0.0
1.8656742572784424 0.5607567429542542 0.0
0.1343258023262024 0.5607567429542542 0.0
1.5970147848129272 0.5642029047012329 0.0
1.8783670663833618 0.7786769866943359 0.0
0.12163297086954117 0.7786769866943359 0.0
1.7164177894592285 0.562579333782196 0.0
1.4776118993759155 0.5620538592338562 0.0
1.5857784748077393 0.867691159248352 0.0
0.25373148918151855 0.5588531494140625 0.0
0.9701492786407471 0.5582930445671082 0.0
1.0895521640777588 0.5582930445671082 0.0
0.8507462739944458 0.5582930445671082 0.0
1.20895516872406 0.5582930445671082 0.0
0.7313433289527893 0.5582930445671082 0.0
1.3283581733703613 0.5582930445671082 0.0
0.6119403839111328 0.5582930445671082 0.0
0.49253740906715393 0.5582930445671082 0.0
0.37313446402549744 0.5582956075668335 0.0
0.36864349246025085 0.7376502752304077 0.0
0.602456271648407 0.7355343103408813 0.0
0.8441241383552551 0.7366551756858826 0.0
1.3355978727340698 0.7366551160812378 0.0
1.0895521640777588 0.7378703355789185 0.0
0.07051979005336761 0.6486480832099915 0.0
1.9294801950454712 0.6486480832099915 0.0
1.5086064338684082 0.6743985414505005 0.0
1.6785967350006104 0.6649783849716187 0.0
1.9543375968933105 0.5452249050140381 0.0
0.04566239193081856 0.5452249050140381 0.0
1.6567095518112183 0.5496091842651367 0.0
1.53738272190094 0.5491842031478882 0.0
0.91306072473526 0.8965699672698975 0.0
1.7782752513885498 0.5446287989616394 0.0
1.4163299798965454 0.5447981357574463 0.0
0.4287482798099518 0.8945969939231873 0.0
1.2610714435577393 0.8950135707855225 0.0
0.4313095211982727 0.6832783222198486 0.0
0.31561949849128723 0.6858259439468384 0.0
1.029850721359253 0.6781684160232544 0.0
0.9082015752792358 0.6848641633987427 0.0
1.1492537260055542 0.6781684160232544 0.0
0.7886138558387756 0.678956151008606 0.0
1.2709345817565918 0.684736430644989 0.0
0.6685023903846741 0.6868807673454285 0.0
1.4007169008255005 0.6702371835708618 0.0
0.5483440160751343 0.6792802214622498 0.0
0.19808045029640198 0.6887137293815613 0.0
1.797759771347046 0.6853783130645752 0.0
0.6811949610710144 0.8757594227790833 0.0
1.0189321041107178 0.8474968671798706 0.0
0.7922950983047485 0.8446238040924072 0.0
1.3765455484390259 0.8590760827064514 0.0
1.1571698188781738 0.8478953838348389 0.0
1.8954496383666992 0.5359624624252319 0.0
1.8360060453414917 0.5359931588172913 0.0
0.10455036163330078 0.5359624624252319 0.0
0.16417928040027618 0.5353734493255615 0.0
0.5530290007591248 0.8422092199325562 0.0
0.2832632064819336 0.5367912650108337 0.0
0.22469767928123474 0.5394234657287598 0.0
0.9405550956726074 0.5357381105422974 0.0
0.9997434020042419 0.5357381105422974 0.0
1.0600273609161377 0.5365630984306335 0.0
1.1191463470458984 0.5357381105422974 0.0
0.8802711367607117 0.5365630984306335 0.0
0.8211521506309509 0.5357381105422974 0.0
1.2385493516921997 0.5357381105422974 0.0
1.179430365562439 0.5365630984306335 0.0
0.7608681321144104 0.5365630984306335 0.0
0.7017492055892944 0.5357381105422974 0.0
1.2988333702087402 0.5365630984306335 0.0
1.357560396194458 0.5390686392784119 0.0
0.5823462605476379 0.5357381105422974 0.0
0.6414651870727539 0.5365630984306335 0.0
0.5220622420310974 0.5365630984306335 0.0
0.4629422128200531 0.535739541053772 0.0
0.3435409665107727 0.5357455015182495 0.0
0.4026572108268738 0.5365669131278992 0.0
0.21006634831428528 0.8590372204780579 0.0
1.7943172454833984 0.8627070188522339 0.0
0.06134982034564018 0.7191494703292847 0.0
1.938650131225586 0.7191494703292847 0.0
1.634666085243225 0.7584379315376282 0.0
0.3355695903301239 0.8387951850891113 0.0
1.537941336631775 0.7633647918701172 0.0
1.9670078754425049 0.574067234992981 0.0
0.032992132008075714 0.574067234992981 0.0
1.6862140893936157 0.5314788222312927 0.0
1.6272135972976685 0.5317342281341553 0.0
1.5077245235443115 0.5309156775474548 0.0
1.5668202638626099 0.5316618084907532 0.0
1.7466963529586792 0.5298213958740234 0.0
1.4473658800125122 0.5297333002090454 0.0
1.804386019706726 0.5275400876998901 0.0
1.9283779859542847 0.5282225012779236 0.0
1.8656879663467407 0.5267112255096436 0.0
0.13432854413986206 0.5271331071853638 0.0
0.07162196189165115 0.5282225012779236 0.0
0.25373148918151855 0.527070939540863 0.0
0.19419340789318085 0.5297109484672546 0.0
0.31349387764930725 0.5272363424301147 0.0
0.37313446402549744 0.5270199179649353 0.0
0.4329495429992676 0.5274069309234619 0.0
0.49253740906715393 0.5270196795463562 0.0
0.5523557066917419 0.5274024605751038 0.0
1.3898069858551025 0.5277745127677917 0.0
1.3283581733703613 0.5270196795463562 0.0
0.6119403839111328 0.5270196795463562 0.0
1.2685397863388062 0.5274024605751038 0.0
0.6717586517333984 0.5274024605751038 0.0
0.7313433289527893 0.5270196795463562 0.0
1.20895516872406 0.5270196795463562 0.0
0.7911616563796997 0.5274024605751038 0.0
0.8507462739944458 0.5270196795463562 0.0
1.1491369009017944 0.5274024605751038 0.0
1.0895521640777588 0.5270196795463562 0.0
0.9105646014213562 0.5274024605751038 0.0
0.9701492786407471 0.5270196795463562 0.0
1.0297338962554932 0.5274024605751038 0.0
1.4776118993759155 0.5259945392608643 0.0
1.597015619277954 0.5255197882652283 0.0
1.7164177894592285 0.525999903678894 0.0
1.6834615468978882 0.8477573990821838 0.0
1.5822722911834717 0.6086509227752686 0.0
0.20459823310375214 0.6270732283592224 0.0
1.8037469387054443 0.6209055185317993 0.0
0.09990309923887253 0.8589919805526733 0.0
1.9000968933105469 0.8589919805526733 0.0
1.75603187084198 0.5789161324501038 0.0
0.10896337777376175 0.5982794761657715 0.0
1.8910366296768188 0.5982794761657715 0.0
1.4950518608093262 0.605266273021698 0.0
1.7049394845962524 0.6007562279701233 0.0
1.4387125968933105 0.5775743722915649 0.0
1.489302158355713 0.851039469242096 0.0
0.15732239186763763 0.5961292386054993 0.0
1.8436260223388672 0.5944437384605408 0.0
0.4399496018886566 0.6259797215461731 0.0
1.022565245628357 0.6257523894309998 0.0
[...]
POINT_DATA 348
SCALARS Psi double
LOOKUP_TABLE default
1.0878984745997737
1.0
1.0
1.0766684694045732
1.0877880063241125
1.0875451105636065
1.0891468085296436
1.0938728056517553
1.1033510760826386
1.1418217492045326
1.0
1.0
1.0
1.0
1.0
1.0
1.0
1.0
1.0
1.0
1.0
1.1342685464285547
1.0942751243182443
1.0844750355941197
1.0798819115037723
1.077714553940717
1.076859054338949
1.087981289184771
1.086711873818557
1.0848223048319114
1.0824208000749374
1.0794798107110337
1.0760237480932655
1.0721218738891727
1.0678672940517369
1.0633834609822141
1.0587584766407054
1.0540920623164698
1.0494630471605004
1.0449565226346276
1.0406243937205024
1.0364944251893464
1.0325996196708769
1.028967284881168
1.0256109404428666
1.02251838498177
1.019694497323994
1.0171381911981126
1.0148448625884658
1.0127905849894814
1.010968779782961
1.009369172179744
1.007982625248382
1.0067887569153093
1.0057803766399958
1.0049494035298643
1.004289003479473
1.0037866653304073
1.003438300010152
1.003241200256974
1.0031934449523776
1.0032914488614566
1.0035346318124585
1.0039285749078486
1.0044762177108733
1.0051807825351866
1.0060462363659968
1.0070859535079701
1.008306273045098
1.00971447056204
1.011316261062711
1.0131345533577376
1.0151740585219236
1.0174309705115632
1.0199346790126893
1.0226764935021535
1.0256555038725965
1.0288722152061824
1.0323240685903639
1.0359903895009634
1.03983953808687
1.0438338443004773
1.0479255365992886
1.0520543034924246
1.0561439085154658
1.0601072581969042
1.063838174210735
1.067240212955433
1.070204758880945
1.0726291928996736
1.0744756478429696
1.075749127609672
1.0764613445847961
1.046786711215895
1.0518854975969825
1.0201199547902444
1.0058086491850986
1.0016730894602783
1.0036439490564268
1.0139159673700997
1.0733682572216707
1.0821127467394882
1.0311074486866445
1.063534311152598
1.0566896059691717
1.042553003842084
1.0268241538516192
1.0156243628317971
1.0084497793265115
1.0043633593253134
1.0028457873710976
1.0030421309155038
1.005401094929777
1.0102988523445824
1.0190457074978674
1.0762815971679331
1.0856765451425494
1.029251343754554
1.044529511938752
1.065908392062837
1.0740341917467822
1.003069060671462
1.0045811572437873
1.0038189311990195
1.008611711973599
1.0070315652398125
1.0132384599771413
1.0232041808792884
1.0157540908458473
1.0374860205248337
1.055478418193019
1.0719808304468217
1.0811616402417354
1.0372069619000968
1.0782438795435245
1.0863580195400129
1.0536728174952918
1.0235734739017588
1.0130768692178336
1.065254610273753
1.0031970531409957
1.0035798888409015
1.0051657437753247
1.0063427135870227
1.009847797441949
1.0118732775564263
1.0179114431538525
1.030094746995861
1.046479489521092
1.0356947696023864
1.0123546187235564
1.0031387430704266
1.0079927423334143
1.0019375181542287
1.0902638558195727
1.0807843179961845
1.0226367970241457
1.0445797933394487
1.0766486531400192
1.0869297743250297
1.0454993566598838
1.030180404758151
1.0004324780330844
1.0622233996878623
1.0182593126696806
1.0105238644161803
1.0014801911649316
1.0321300520806906
1.0494026493390574
1.0022866929241119
1.002832583734888
1.0035487598019253
1.005618482180886
1.0068375198684194
1.0105844970800897
1.0140169696868226
1.0195846249473073
1.0716959175712824
1.0635402042707134
1.003369088971928
1.000551529086218
1.0019091531611086
1.0044737989205517
1.0011770796271566
1.0738826788110627
1.0689326688585896
1.0837058533173447
1.0778577789954105
1.0080518455173102
1.0609556650061238
1.0698224663668203
1.0035449102353426
1.0031568987955828
1.0033514362422407
1.0041283498132902
1.004548003030845
1.0061844098433734
1.0075849565175423
1.0055370184088213
1.0085721339317448
1.0117220724615463
1.0104033162554802
1.013927018315956
1.0208731775206425
1.0158334221686478
1.027074305462846
1.0342521735904988
1.0515054294474822
1.0425620826640247
1.0395567065897413
1.0362112339726173
1.0980435920679443
1.0884747660909286
1.0302226294980947
1.0266177485061165
1.0193764489497923
1.0777981807661992
1.0869960837085726
1.0498144937072387
1.0417081053366575
1.0271153362813812
1.033926273950163
1.0581499448497382
1.0211277928052098
1.0654241820023855
1.0754785722016789
1.0715896556902107
1.0810291668740644
1.0859076137180153
1.0655604215867855
1.0740717863106002
1.0562842960833303
1.0470323715586278
1.0383626602515137
1.030604475606742
1.0238980843675338
1.016320486281498
1.012123536950264
1.0182792592077887
1.0089275209377675
1.0137006784304392
1.0100775787289085
1.0065003908945112
1.0073102838735415
1.0053049717219473
1.0047733080054049
1.0036843061730456
1.0039874095304682
1.003294880987091
1.0031996906122995
1.0240373579795605
1.03778271145657
1.0540276658233692
1.0247321279775221
1.0340237287597045
1.0720977955360536
1.0654174778281038
1.0766798885262423
1.069455570041088
1.0590427060603507
1.084187003959187
1.0751055972719026
1.024234064732552
1.0512398240849166
1.0196470458274232
1.0091319941383539
1.0790605295437277
1.0704032403154096
1.0344440066400071
1.0027017723139033
1.0033116072567014
1.0039833369650177
1.00614424779673
1.0075903529912091
1.011737990196225
1.013196772620269
1.0208948223729981
1.0530712582041033
1.0269044504292792
1.0769456126938843
1.0853521983032621
1.0490327203077354
1.0329780831253974
1.0415769130885149
1.0531510678626974
1.0023830262388653
1.0026693192937088
1.0039418916227825
1.0050219759851933
1.0079147630770995
1.0097441062277175
1.014474178986728
1.0255108298401487
1.0411378681656698
1.1079720340399561
1.0992860060947787
1.0766662396963038
1.087955370585397
1.0607630655473954
1.002973487668071
1.003251576377584
1.0031706628646309
1.0612209315368157
1.0037527092940925
1.004377022872055
1.0056003468737489
1.005364280466743
1.0069008659098708
1.008344669896196
1.0107080776632953
1.0101583385886577
1.0127990596433707
1.0154620523346238
1.0192794238851839
1.0265465392256892
1.0680748971178669
1.0320716502648983
1.0420100806705628
1.0488854792653792
1.0174362729657147
1.045787326088907
1.0304818271918388
1.03864716601659
1.001457016844854
1.021758311159277
1.038965910647537
1.0837777928968129
1.0744046644148508
1.0002569122329346
1.0282062279108213
1.069242866000256
1.0781093476644543
1.0039401959024583
1.0875215094114519
1.0771331069139398
1.0872136410811533
1.0783251136216694
1.0690638754392514
1.0624278432666783
1.0620060167708945
1.018597517438238
1.0010538008168284
1.0163453085961962
1.0065916819815799
1.0761908359374464
1.087210488958967
1.0528187222926084
1.046971093903702

SCALARS Omega double
LOOKUP_TABLE default
4.100276588846612
-10.327730798210712
-14.268649568318137
0.13217856982237497
4.492515425921903
-2.683794556326556
-4.473557662939357
3.5422922216252566
1.031478153707093
20.842645460485738
-8.18867520410657
-0.4094725268317203
-0.8985275730093059
-0.2342139715452493
-0.1136909932463547
-0.03061212651302195
-0.11116902255183954
-0.18643505232936064
-0.6569892878564252
-0.611033930393208
-6.115745388413762
17.943670582854445
3.5124636785064274
-1.0379081269138877
0.1453482846948442
0.0335122573825039
-0.32203140040325445
2.1113617281004324
1.0918367776629498
0.7143021728335188
0.5849518476549952
0.5327239419838319
0.5070780229394696
0.4781901958374861
0.44153688802737856
0.3974117822854798
0.34773268792833206
0.2962463988126562
0.24497892416399278
0.1961831382244707
0.1508090084940928
0.10952048867924354
0.07261348078713342
0.04033346172563843
0.012569711999095458
-0.011155341482989758
-0.03108180909768755
-0.04752457918323706
-0.06081138566961622
-0.07154131220415302
-0.0800135390878588
-0.08658309300518362
-0.09151388320832653
-0.09520528640682747
-0.09785147791286958
-0.09967298748948525
-0.10081312444861883
-0.10146381700357851
-0.10170957054468038
-0.10162685262148916
-0.10124794487865184
-0.10059289360785524
-0.0996482771227912
-0.09834301637254056
-0.09661226521925124
-0.09434270950184076
-0.09142624461111752
-0.08763221332698085
-0.08279841832263801
-0.07668843312851698
-0.06909525922446322
-0.059547306575397196
-0.0478028932428136
-0.033664964617105046
-0.016472743165911952
0.003910506945957353
0.027743088829794586
0.05530912697584399
0.08677693915858208
0.12203691007385224
0.1605761359200136
0.2016896090494672
0.24401350927681997
0.2859350919037153
0.3247869486229256
0.3576013723437595
0.379547156861408
0.3852480065793789
0.3706556233895594
0.3300023920892957
0.26103410401065735
0.16510919406943778
0.06635078712899184
0.31510667740910187
0.33936277783268587
-0.116464126628098
-0.1309118537499175
-0.10570543896144027
-0.11366534982993126
-0.12385496911164397
0.7178328080408765
0.8448250611641793
0.04691930176782529
0.4698816288085454
0.408124748442285
0.166949610524024
0.0028975528110228715
-0.07395211805348648
-0.10007943108020484
-0.10519633257252693
-0.10385547356970687
-0.10230779604661122
-0.09843630737183783
-0.08460652475293187
-0.04068561906906295
0.3065098115334414
0.09488991624388331
0.05186251343056141
0.21730105725850685
0.4399174115639678
0.5280590909489933
-0.10168072258283618
-0.09715103904559219
-0.10234064056727595
-0.08372760954907323
-0.09659158529023784
-0.07320443232699864
-0.011171924011840532
-0.04893132773244641
0.11627851211188478
0.3207472831741627
0.40938443162500276
0.4908519697426533
0.13352109973138848
2.249060118534866
2.5274009270725926
0.3156010886540682
0.007244183618426157
-0.31878314012809456
0.43428948506714016
-0.10231091100791266
-0.09981691352836082
-0.1003615972158112
-0.09157788875792193
-0.08711257975393741
-0.06873061101443016
-0.04655456249384209
0.046334066115076546
0.2135102067475298
0.04064205001983445
-0.14344316452015665
-0.11680355453059765
-0.12342029295513476
-0.10619346384352484
0.9676272314258886
0.574782840510676
-0.03102886672838889
0.23799457252591347
0.14049951527855734
0.4503874075198948
0.2219093773241917
0.06523625931022105
-0.09857907630643051
0.3875232261262713
-0.03006942585914582
-0.4188839930948898
-0.1508136662454008
0.03255470619990258
0.2753749217978402
-0.10461615494049765
-0.10807517684537223
-0.10488148381080391
-0.11268901494043998
-0.10497213405954696
-0.11310599242310558
-0.08190652662894593
-0.0732426296698974
0.8361155024872855
0.6923071887970678
-0.20088340869202276
-0.09796265240564392
-0.14249513885249002
-0.20891314612538853
-0.1146443138033507
0.32160350132786936
0.39908267646745516
0.5432661517053706
0.5181516058191425
-0.3016400748964884
0.37625886906023387
0.46768784811701036
-0.10188406035753739
-0.10167068770297773
-0.10038419536861296
-0.09788438527003111
-0.10072928759141499
-0.09731625399539953
-0.08620621550887454
-0.09350528932802862
-0.09023275141086476
-0.07756311868313451
-0.07426980021607546
-0.056273964992759815
-0.024308265489455437
-0.056498580443629216
0.02302010655925091
0.08697762963328493
0.268906219290678
0.17062922852901571
-0.6191909324785975
-0.5147470873656212
2.3294452240484236
1.9777754323547427
-0.01150973666191599
-0.23816941026047483
-0.12062839107458567
0.1669067771724832
-1.0217322061957996
0.2655262835101276
0.18017280462399013
0.039206153816800246
0.10148349061891963
0.3466251493344252
-0.008566660905509683
0.3920916343241589
0.21860644282601321
0.36523518540396616
0.5338230394932997
0.7124939967385955
0.42341547421111936
0.49727144033762577
0.3222716215961184
0.21880357560895822
0.1275221932130225
0.053812367113223916
-0.0016606426231869904
-0.04142764099348794
-0.06554030029655859
-0.041222409657440506
-0.08056137018138064
-0.0676089807849479
-0.08431585649865227
-0.0900781949604018
-0.09403103018319287
-0.09919239534344125
-0.09582605375986694
-0.09921884735652543
-0.10139608882430602
-0.10184405985318502
-0.10108330719510193
0.013962258215054736
0.13979944389346224
0.3076025291184677
-0.2638912767133068
0.09725913717618855
0.6218180594342801
0.5337798661420144
2.9039953758022925
2.1556482044777243
0.3856460226105812
0.43159595835478326
0.4734073830245424
0.005161763481808732
0.3062370646892394
-0.02441037748499132
-0.2810107007165348
0.5921227812618195
0.5085895260410677
0.07552629745482786
-0.10322295683894524
-0.10472892708321321
-0.10082992716314337
-0.10385717190119305
-0.09299650626575334
-0.0899879613925529
-0.0714738441878117
-0.041828831926191974
0.31016150347207594
0.0341359964089466
1.2523254609050691
1.4785748215156722
0.2651621032290966
0.09036934527978199
0.18033095843550528
0.41361737927077963
-0.10537195808047903
-0.10433474732330196
-0.11016425780392233
-0.10444549940813969
-0.11200115281826162
-0.0977274642148664
-0.09915262061362808
-0.02849003974453736
0.14423106483088033
5.598342301722935
5.403331020305717
-0.012855760315574246
2.0975690291945024
0.48885287024061463
-0.10265927552085255
-0.1031238222291041
-0.10135193236333494
0.4019969011040901
-0.09983804206718595
-0.10270296263348
-0.1010056553736359
-0.09587047182044944
-0.09124246763604336
-0.09487818057762212
-0.08672285810985998
-0.0794407060275748
-0.06713689963434448
-0.06531829836114787
-0.04228616939444011
0.010999432564473704
0.48867830877407925
0.06039492444822758
0.16287202605946993
0.24370900497078768
-0.06902116700043376
0.22262509391696497
0.06938333406313851
0.14914127878341518
-0.1098502839107166
-0.1682993803179377
0.1522491095129666
0.3821709166090279
0.37518986621394906
-0.08900150711195744
0.03241088545421949
0.44000536828689285
0.5321896089413249
-0.13409298298318506
0.4668976818546604
0.011219790036831876
-0.5101373618215556
0.34085160704181916
1.0203185714960579
0.9271598505877946
0.37332386870410056
-0.02622249300232585
-0.17256912065342586
-0.05296719735079224
-0.16617295588321135
0.11856080407806617
1.2482118246656089
0.5729328655404393
-1.216772116145712

SCALARS Vx_analytic double
LOOKUP_TABLE default
4.100276588846612
-10.327730798210712
-14.268649568318137
0.1321063788998519
4.492515425921903
-2.683794556326556
-4.473557662939357
3.5422922216252566
1.031478153707093
20.842645460485738
-8.18867520410657
-0.4094725268317203
-0.8985275730093059
-0.2342139715452493
-0.1136909932463547
-0.03061212651302195
-0.11116902255183954
-0.18643505232936064
-0.656989287856425
-0.611033930393208
-6.115745388413762
17.943670582854445
3.513264696091958
-1.015770522187614
0.14755554090745418
0.034519698691295425
-0.3200761970311508
2.1113617281004324
1.0918367776629498
0.7143021728335188
0.5849518476549952
0.5327239419838319
0.5070780229394696
0.4781901958374861
0.44153688802737856
0.3974117822854798
0.34773268792833206
0.2962463988126562
0.24497892416399278
0.1961831382244707
0.1508090084940928
0.10952048867924354
0.07261348078713342
0.04033346172563843
0.012569711999095458
-0.011155341482989758
-0.03108180909768755
-0.04752457918323706
-0.06081138566961622
-0.07154131220415302
-0.0800135390878588
-0.08658309300518362
-0.09151388320832653
-0.09520528640682747
-0.09785147791286958
-0.09967298748948525
-0.10081312444861883
-0.10146381700357851
-0.10170957054468038
-0.10162685262148916
-0.10124781159272925
-0.10059292616169396
-0.09964843942961567
-0.09834348660917291
-0.09661310641538388
-0.09434450427296362
-0.09142860478092656
-0.08763595708329629
-0.08280333004073011
-0.07669660169767872
-0.06910494993475023
-0.059561437802790225
-0.047822977537561324
-0.03367245113169053
-0.016485382909804204
0.003888417337687767
0.027721525505644114
0.05529748054875389
0.0867682856740185
0.1220203490298454
0.16057453511289776
0.20170955043363795
0.24406643799623343
0.2860015868315523
0.32489654730696094
0.3577128716229152
0.37972785885463495
0.3856007175590753
0.37102831748682663
0.3304074143288426
0.26136830650513826
0.16535185153568782
0.06630766815882268
0.3072890269756013
0.33717061312269914
-0.11573714565566241
-0.13079943652784687
-0.10570535164241744
-0.11372779977693592
-0.12456352980561222
0.7269997392169195
0.8347617244782248
0.0460072721314643
0.4679910121704581
0.41050734821306845
0.1669214658843361
0.0031366744900003726
-0.07378379017027085
-0.10001566352549261
-0.10518126058948142
-0.10385295247919034
-0.10231051650391182
-0.0984683115386717
-0.08473012038075646
-0.04101671248220825
0.3086317374685145
0.10164156660940345
0.0515378761054914
0.21754434626531746
0.44228040939335933
0.5270414712851124
-0.10168035173849589
-0.09715930963778656
-0.10233726973613189
-0.08376999522803402
-0.09657554866806757
-0.07315790255662219
-0.011102318939603057
-0.04907507070355399
0.11625278315082296
0.32025823236137513
0.4115959597927876
0.4921555323168363
0.13340677617801483
2.2562437453432542
2.465884213186359
0.3162010472631581
0.0070459486162961675
-0.3199528372837146
0.4335301046079452
-0.10230953248486863
-0.09981882573376806
-0.10035370334070004
-0.09159325698334393
-0.08708220242439278
-0.06878610502253006
-0.04648329306087258
0.04641119414831742
0.21338885856926337
0.041510521353824846
-0.14299730601146765
-0.11677288299164498
-0.12376119373798307
-0.10620445686212232
0.8926160202458503
0.5831067612857496
-0.03178275192662364
0.2379372078285946
0.1418866582797524
0.45922610435390054
0.2220384844688321
0.0650779727537824
-0.09857957780679173
0.3884750796304607
-0.03015693387836687
-0.41751391382774666
-0.15089692514467523
0.032833077190574225
0.2746372748294196
-0.10461648460730713
-0.10806433835504028
-0.10490609445366658
-0.1126337114086185
-0.10508947794573682
-0.11291174469452879
-0.08229300167771723
-0.07287632036331139
0.8282370818000121
0.6979119990653967
-0.20066823149684224
-0.09797117338873808
-0.14243483537827267
-0.20985492568099307
-0.11468426598489266
0.32291998713654607
0.4004661618127173
0.5455847667941065
0.5182087424515613
-0.3007931010554582
0.3759623356200663
0.46729199016977535
-0.1018833146085568
-0.10167019151701648
-0.10038501348350229
-0.09788822374736487
-0.10072763241708951
-0.0973125222258306
-0.08622900263490596
-0.09351734160943456
-0.09022639657870642
-0.07755274279300671
-0.07432038272949046
-0.05635098737003905
-0.024297341185653614
-0.05648790791211004
0.023012132495025706
0.08694560467902686
0.2687318337714348
0.1705322591901368
-0.6002055584967476
-0.5404004049400324
2.3324891598787043
1.99521332353669
-0.014257359555192493
-0.23526584457115118
-0.1219607867536379
0.1688958096874974
-1.0064285309194403
0.26576571894549833
0.18013719113637253
0.03905087257492737
0.10135564793343389
0.34736219992567646
-0.008684311393950365
0.39328239809827503
0.21971500777136163
0.3663367871343536
0.5347506759381595
0.7167242427124463
0.4231117951292177
0.49705399037484443
0.32210796728400887
0.21875178754213537
0.12751921971982216
0.053843939613209
-0.0016322801219622464
-0.04151190211095705
-0.06558851388435431
-0.04119316770035685
-0.08058917380850063
-0.06759112039154457
-0.08430333367453147
-0.09009148818538515
-0.09402487723061127
-0.09918919382220474
-0.09583183124384125
-0.09922063083549024
-0.10139489380089951
-0.10184359425207001
-0.1010833997349734
0.013839364273719686
0.13970757049230487
0.3079784858028947
-0.26982870054406954
0.0968745091640865
0.6181302599112967
0.5377275140858641
2.8036412431837956
1.9883209990723307
0.38716988103701655
0.4280201228016516
0.4775215950495318
0.004780608319360418
0.30695853440744114
-0.024649594038939973
-0.2824246676794736
0.5891892999338901
0.5124021162030428
0.07569952751315469
-0.1032224483196849
-0.10472311513398883
-0.10084272099470075
-0.10382418384737255
-0.093067422594563
-0.0898841616650067
-0.0716621357907926
-0.041609075693096416
0.3094423842502755
0.03395513005211124
1.2650001531897703
1.4602339620507205
0.2655939550243927
0.09019050555129032
0.1803862396516928
0.4148559107270285
-0.10536895353227262
-0.10433929210002181
-0.11013665064281589
-0.1044875960551515
-0.11189193996892903
-0.09790550649850824
-0.0988342277213264
-0.02803120148686859
0.14415472725020953
5.320999422847333
5.209113619533695
-0.012093326484322892
2.094004459567864
0.48593036166120457
-0.10265780724592878
-0.1031214204136405
-0.10135354785035419
0.40109114527231343
-0.0998434085314846
-0.1026951397918472
-0.10099101283388809
-0.09589103033233229
-0.09127526461432489
-0.09484442511205406
-0.0866705934772953
-0.07952304268157541
-0.06724860128085473
-0.06522695155562387
-0.04217310689617319
0.011130161589108858
0.4872496269119925
0.06049584824474001
0.16281780930467474
0.24343739905265718
-0.06948058334150378
0.22266343909895667
0.06925834372252468