# vtk DataFile Version 1.0
2D Simulation C++
ASCII
DATASET UNSTRUCTURED_GRID
FIELD FieldData 1
NODES 1 2 int
348 601

POINTS 348 double
0.0 0.5 0.0
0.0 1.0 0.0
2.0 1.0 0.0
2.0 0.5 0.0
0.0 0.528801679611206 0.0
0.0 0.564507782459259 0.0
0.0 0.6110168099403381 0.0
0.0 0.6721802353858948 0.0
0.0 0.7528436183929443 0.0
0.0 0.8593378663063049 0.0
0.16666941344738007 1.0 0.0
0.3333356976509094 1.0 0.0
0.5000020265579224 1.0 0.0
0.6666678786277771 1.0 0.0
0.8333337306976318 1.0 0.0
1.0 1.0 0.0
1.1666662693023682 1.0 0.0
1.3333321809768677 1.0 0.0
1.4999979734420776 1.0 0.0
1.6666642427444458 1.0 0.0
1.8333306312561035 1.0 0.0
2.0 0.8593378663063049 0.0
2.0 0.7528436183929443 0.0
2.0 0.6721802353858948 0.0
2.0 0.6110168099403381 0.0
2.0 0.564507782459259 0.0
2.0 0.528801679611206 0.0
0.029850948601961136 0.5 0.0
0.05970168858766556 0.5 0.0
0.08955242484807968 0.5 0.0
0.1194031685590744 0.5 0.0
0.14925390481948853 0.5 0.0
0.17910465598106384 0.5 0.0
0.20895539224147797 0.5 0.0
0.2388061285018921 0.5 0.0
0.2686568796634674 0.5 0.0
0.29850760102272034 0.5 0.0
0.32835835218429565 0.5 0.0
0.35820910334587097 0.5 0.0
0.3880598247051239 0.5 0.0
0.4179105758666992 0.5 0.0
0.44776129722595215 0.5 0.0
0.47761204838752747 0.5 0.0
0.5074627995491028 0.5 0.0
0.5373135209083557 0.5 0.0
0.5671642422676086 0.5 0.0
0.5970150232315063 0.5 0.0
0.6268657445907593 0.5 0.0
0.6567164659500122 0.5 0.0
0.6865672469139099 0.5 0.0
0.7164179682731628 0.5 0.0
0.7462686896324158 0.5 0.0
0.7761194705963135 0.5 0.0
0.8059701919555664 0.5 0.0
0.8358209133148193 0.5 0.0
0.865671694278717 0.5 0.0
0.89552241563797 0.5 0.0
0.9253731369972229 0.5 0.0
0.9552239179611206 0.5 0.0
0.9850746393203735 0.5 0.0
1.0149253606796265 0.5 0.0
1.0447760820388794 0.5 0.0
1.0746268033981323 0.5 0.0
1.1044776439666748 0.5 0.0
1.1343283653259277 0.5 0.0
1.1641790866851807 0.5 0.0
1.1940298080444336 0.5 0.0
1.2238805294036865 0.5 0.0
1.2537312507629395 0.5 0.0
1.2835819721221924 0.5 0.0
1.3134328126907349 0.5 0.0
1.3432835340499878 0.5 0.0
1.3731342554092407 0.5 0.0
1.4029849767684937 0.5 0.0
1.4328356981277466 0.5 0.0
1.4626864194869995 0.5 0.0
1.492537260055542 0.5 0.0
1.522387981414795 0.5 0.0
1.5522387027740479 0.5 0.0
1.5820894241333008 0.5 0.0
1.6119401454925537 0.5 0.0
1.6417908668518066 0.5 0.0
1.6716417074203491 0.5 0.0
1.701492428779602 0.5 0.0
1.731343150138855 0.5 0.0
1.761193871498108 0.5 0.0
1.7910445928573608 0.5 0.0
1.8208953142166138 0.5 0.0
1.8507460355758667 0.5 0.0
1.8805968761444092 0.5 0.0
1.910447597503662 0.5 0.0
1.940298318862915 0.5 0.0
1.970149040222168 0.5 0.0
1.7358819246292114 0.7499510645866394 0.0
0.2656642198562622 0.7486277222633362 0.0
0.49981194734573364 0.737183690071106 0.0
0.74151611328125 0.7359843254089355 0.0
0.9774143695831299 0.7371892929077148 0.0
1.201690912246704 0.7367381453514099 0.0
1.447761058807373 0.7383390665054321 0.0
1.8591958284378052 0.6421071290969849 0.0
0.14080412685871124 0.6421071290969849 0.0
1.588537573814392 0.6783608794212341 0.0
0.2553686201572418 0.6221352219581604 0.0
1.7466964721679688 0.6278358101844788 0.0
0.38199201226234436 0.6273008584976196 0.0
0.5013589859008789 0.6272794008255005 0.0
0.6207823157310486 0.6272526383399963 0.0
0.7401852607727051 0.627252459526062 0.0
0.8595882654190063 0.6272523999214172 0.0
0.9701492786407471 0.6212864518165588 0.0
1.0807102918624878 0.6272523999214172 0.0
1.2001131772994995 0.6272523999214172 0.0
1.3195161819458008 0.6272523999214172 0.0
1.4488563537597656 0.6310953497886658 0.0
1.9247323274612427 0.5706554055213928 0.0
0.07526770234107971 0.5706554055213928 0.0
1.5377081632614136 0.5910930037498474 0.0
1.6566967964172363 0.5934624075889587 0.0
1.8074009418487549 0.5708622932434082 0.0
0.1940300166606903 0.5737577676773071 0.0
1.0286364555358887 0.5665481686592102 0.0
1.14803946018219 0.5665481686592102 0.0
0.9116620421409607 0.5665481686592102 0.0
1.2674424648284912 0.5665481686592102 0.0
0.7922590970993042 0.5665481686592102 0.0
0.6728560328483582 0.5665482878684998 0.0
0.5534531474113464 0.5665481686592102 0.0
1.3892061710357666 0.5727682709693909 0.0
0.43402159214019775 0.5665869116783142 0.0
0.3146642744541168 0.5667200088500977 0.0
1.8656742572784424 0.5607567429542542 0.0
0.1343258023262024 0.5607567429542542 0.0
1.5970147848129272 0.5642029047012329 0.0
1.8783670663833618 0.7786769866943359 0.0
0.12163297086954117 0.7786769866943359 0.0
1.7164177894592285 0.562579333782196 0.0
1.4776118993759155 0.5620538592338562 0.0
1.5857784748077393 0.867691159248352 0.0
0.25373148918151855 0.5588531494140625 0.0
0.9701492786407471 0.5582930445671082 0.0
1.0895521640777588 0.5582930445671082 0.0
0.8507462739944458 0.5582930445671082 0.0
1.20895516872406 0.5582930445671082 0.0
0.7313433289527893 0.5582930445671082 0.0
1.3283581733703613 0.5582930445671082 0.0
0.6119403839111328 0.5582930445671082 0.0
0.49253740906715393 0.5582930445671082 0.0
0.37313446402549744 0.5582956075668335 0.0
0.36864349246025085 0.7376502752304077 0.0
0.602456271648407 0.7355343103408813 0.0
0.8441241383552551 0.7366551756858826 0.0
1.3355978727340698 0.7366551160812378 0.0
1.0895521640777588 0.7378703355789185 0.0
0.07051979005336761 0.6486480832099915 0.0
1.9294801950454712 0.6486480832099915 0.0
1.5086064338684082 0.6743985414505005 0.0
1.6785967350006104 0.6649783849716187 0.0
1.9543375968933105 0.5452249050140381 0.0
0.04566239193081856 0.5452249050140381 0.0
1.6567095518112183 0.5496091842651367 0.0
1.53738272190094 0.5491842031478882 0.0
0.91306072473526 0.8965699672698975 0.0
1.7782752513885498 0.5446287989616394 0.0
1.4163299798965454 0.5447981357574463 0.0
0.4287482798099518 0.8945969939231873 0.0
1.2610714435577393 0.8950135707855225 0.0
0.4313095211982727 0.6832783222198486 0.0
0.31561949849128723 0.6858259439468384 0.0
1.029850721359253 0.6781684160232544 0.0
0.9082015752792358 0.6848641633987427 0.0
1.1492537260055542 0.6781684160232544 0.0
0.7886138558387756 0.678956151008606 0.0
1.2709345817565918 0.684736430644989 0.0
0.6685023903846741 0.6868807673454285 0.0
1.4007169008255005 0.6702371835708618 0.0
0.5483440160751343 0.6792802214622498 0.0
0.19808045029640198 0.6887137293815613 0.0
1.797759771347046 0.6853783130645752 0.0
0.6811949610710144 0.8757594227790833 0.0
1.0189321041107178 0.8474968671798706 0.0
0.7922950983047485 0.8446238040924072 0.0
1.3765455484390259 0.8590760827064514 0.0
1.1571698188781738 0.8478953838348389 0.0
1.8954496383666992 0.5359624624252319 0.0
1.8360060453414917 0.5359931588172913 0.0
0.10455036163330078 0.5359624624252319 0.0
0.16417928040027618 0.5353734493255615 0.0
0.5530290007591248 0.8422092199325562 0.0
0.2832632064819336 0.5367912650108337 0.0
0.22469767928123474 0.5394234657287598 0.0
0.9405550956726074 0.5357381105422974 0.0
0.9997434020042419 0.5357381105422974 0.0
1.0600273609161377 0.5365630984306335 0.0
1.1191463470458984 0.5357381105422974 0.0
0.8802711367607117 0.5365630984306335 0.0
0.8211521506309509 0.5357381105422974 0.0
1.2385493516921997 0.5357381105422974 0.0
1.179430365562439 0.5365630984306335 0.0
0.7608681321144104 0.5365630984306335 0.0
0.7017492055892944 0.5357381105422974 0.0
1.2988333702087402 0.5365630984306335 0.0
1.357560396194458 0.5390686392784119 0.0
0.5823462605476379 0.5357381105422974 0.0
0.6414651870727539 0.5365630984306335 0.0
0.5220622420310974 0.5365630984306335 0.0
0.4629422128200531 0.535739541053772 0.0
0.3435409665107727 0.5357455015182495 0.0
0.4026572108268738 0.5365669131278992 0.0
0.21006634831428528 0.8590372204780579 0.0
1.7943172454833984 0.8627070188522339 0.0
0.06134982034564018 0.7191494703292847 0.0
1.938650131225586 0.7191494703292847 0.0
1.634666085243225 0.7584379315376282 0.0
0.3355695903301239 0.8387951850891113 0.0
1.537941336631775 0.7633647918701172 0.0
1.9670078754425049 0.574067234992981 0.0
0.032992132008075714 0.574067234992981 0.0
1.6862140893936157 0.5314788222312927 0.0
1.6272135972976685 0.5317342281341553 0.0
1.5077245235443115 0.5309156775474548 0.0
1.5668202638626099 0.5316618084907532 0.0
1.7466963529586792 0.5298213958740234 0.0
1.4473658800125122 0.5297333002090454 0.0
1.804386019706726 0.5275400876998901 0.0
1.9283779859542847 0.5282225012779236 0.0
1.8656879663467407 0.5267112255096436 0.0
0.13432854413986206 0.5271331071853638 0.0
0.07162196189165115 0.5282225012779236 0.0
0.25373148918151855 0.527070939540863 0.0
0.19419340789318085 0.5297109484672546 0.0
0.31349387764930725 0.5272363424301147 0.0
0.37313446402549744 0.5270199179649353 0.0
0.4329495429992676 0.5274069309234619 0.0
0.49253740906715393 0.5270196795463562 0.0
0.5523557066917419 0.5274024605751038 0.0
1.3898069858551025 0.5277745127677917 0.0
1.3283581733703613 0.5270196795463562 0.0
0.6119403839111328 0.5270196795463562 0.0
1.2685397863388062 0.5274024605751038 0.0
0.6717586517333984 0.5274024605751038 0.0
0.7313433289527893 0.5270196795463562 0.0
1.20895516872406 0.5270196795463562 0.0
0.7911616563796997 0.5274024605751038 0.0
0.8507462739944458 0.5270196795463562 0.0
1.1491369009017944 0.5274024605751038 0.0
1.0895521640777588 0.5270196795463562 0.0
0.9105646014213562 0.5274024605751038 0.0
0.9701492786407471 0.5270196795463562 0.0
1.0297338962554932 0.5274024605751038 0.0
1.4776118993759155 0.5259945392608643 0.0
1.597015619277954 0.5255197882652283 0.0
1.7164177894592285 0.525999903678894 0.0
1.6834615468978882 0.8477573990821838 0.0
1.5822722911834717 0.6086509227752686 0.0
0.20459823310375214 0.6270732283592224 0.0
1.8037469387054443 0.6209055185317993 0.0
0.09990309923887253 0.8589919805526733 0.0
1.9000968933105469 0.8589919805526733 0.0
1.75603187084198 0.5789161324501038 0.0
0.10896337777376175 0.5982794761657715 0.0
1.8910366296768188 0.5982794761657715 0.0
1.4950518608093262 0.605266273021698 0.0
1.7049394845962524 0.6007562279701233 0.0
1.4387125968933105 0.5775743722915649 0.0
1.489302158355713 0.851039469242096 0.0
0.15732239186763763 0.5961292386054993 0.0
1.8436260223388672 0.5944437384605408 0.0
0.4399496018886566 0.6259797215461731 0.0
1.022565245628357 0.6257523894309998 0.0
[...]
POINT_DATA 348
SCALARS Psi double
LOOKUP_TABLE default
1.0878984991949356
1.0
1.0
1.0766685131664624
1.087788030757288
1.0875451343865261
1.0891468309486627
1.0938728251062162
1.1033510902355088
1.1418217558717971
1.0
1.0
1.0
1.0
1.0
1.0
1.0
1.0
1.0
1.0
1.0
1.1342685564362653
1.0942751472330425
1.0844750684445104
1.0798819503782504
1.0777145960635857
1.0768590978038697
1.0879813139660721
1.0867118995514489
1.0848223322490214
1.0824208298653588
1.0794798435776825
1.0760237846939256
1.0721219148609087
1.0678673399528102
1.063383512378909
1.0587585340321852
1.0540921261269762
1.049463117738566
1.0449566003257402
1.0406244787724892
1.0364945177624878
1.032599719839163
1.0289673927169034
1.0256110559127436
1.022518507948412
1.019694627565991
1.0171383285053126
1.0148450066541794
1.012790735399755
1.0109689360599192
1.00936933387865
1.0079827918502027
1.0067889277950817
1.0057805511370526
1.004949581039381
1.0042891833570253
1.0037868468425732
1.0034384824237188
1.003241382920774
1.0031936272310775
1.0032916300525305
1.0035348112095919
1.0039287519068458
1.0044763917531623
1.0051809530125537
1.006046402706949
1.0070861152565038
1.0083064298186024
1.009714621944554
1.011316406695313
1.0131346930147034
1.0151741920532686
1.0174310976181846
1.0199347997267645
1.0226766078020761
1.0256556117497184
1.028872316750874
1.0323241639495198
1.03599047888414
1.0398396217160284
1.0438339224511954
1.0479256095910234
1.0520543716924962
1.0561439723032016
1.0601073179643279
1.0638382303648242
1.0672402659775966
1.0702048091890008
1.0726292409587384
1.0744756941320495
1.0757491725526773
1.0764613886663972
1.0467867421843449
1.0518855231054154
1.0201200130320893
1.0058087394276225
1.0016731916581791
1.0036440408614609
1.0139160308690316
1.0733682976205778
1.0821127729318174
1.031107511771041
1.0635343531042714
1.056689657971629
1.042553068584675
1.0268242443314413
1.015624478852013
1.0084499166160235
1.0043635107230715
1.0028459456773915
1.0030422838268587
1.0054012361049598
1.0102989753366143
1.019045806008881
1.0762816406587985
1.085676570539261
1.0292514342069974
1.0445295811078068
1.0659084437893644
1.0740342284536
1.003069234975692
1.0045813225054268
1.0038191045428482
1.0086118597865068
1.0070317272290492
1.0132386013673238
1.0232042953761284
1.0157542143685454
1.0374861057867109
1.055478476359876
1.071980877853587
1.0811616704441347
1.0372070449027742
1.078243899663024
1.0863580328584013
1.053672880839273
1.023573580823697
1.0130768839226254
1.0652546571213555
1.0031972295806153
1.0035800610778227
1.0051659139423004
1.0063428720814356
1.009847951118655
1.0118734153128857
1.0179115724091736
1.0300948474045173
1.0464795610205873
1.0356948090591322
1.0123546920686508
1.0031388412666637
1.0079928197209873
1.0019376169854113
1.0902638773431075
1.080784354513387
1.0226368732119702
1.0445798473950558
1.0766486967844622
1.0869297990937694
1.0454994303387564
1.0301805008074807
1.0004325009890824
1.0622234561438637
1.0182594343788214
1.0105238754849586
1.0014802101285485
1.0321301147809148
1.0494026918165758
1.0022868257199344
1.002832712772614
1.0035488852813033
1.0056186047930575
1.006837628654527
1.0105846005435837
1.0140170646246822
1.019584710398866
1.0716959448072547
1.0635402428013465
1.0033691143554186
1.0005515712712962
1.0019091932199342
1.0044738232967687
1.0011771184579088
1.0738827253389454
1.068932719785913
1.0837058814866072
1.077857813230584
1.0080518730985666
1.0609557185847982
1.0698225092129587
1.0035450902489542
1.0031570792795819
1.0033516144601253
1.0041285234409578
1.0045481796766382
1.0061845807000107
1.0075851140441887
1.0055371848242578
1.0085722961592538
1.0117222241763346
1.0104034629436702
1.0139271531080858
1.0208733027655355
1.0158335611508515
1.027074415694461
1.034252268893234
1.0515054958556247
1.04256216292779
1.0395567140622506
1.036211243297065
1.0980436088409944
1.0884747937135884
1.03022266696674
1.0266177641605758
1.019376494285059
1.0777982227083744
1.0869961074618704
1.0498145636324
1.0417081853395131
1.0271154399809992
1.033926365475923
1.0581500060143858
1.021127909474436
1.0654242362970272
1.0754786173034072
1.0715897044478009
1.081029197896559
1.0859076398697283
1.065560469771952
1.0740718247051981
1.056284356180417
1.0470324450613195
1.0383627483815474
1.030604578779341
1.0238982027110124
1.016320615262448
1.0121236784630565
1.018279391962566
1.0089276738815665
1.0137008246121597
1.0100777365334503
1.0065005536954696
1.007310451414594
1.0053051464322753
1.00477347901825
1.0036844830462577
1.0039875889333092
1.0032950621791716
1.0031998710363446
1.024037468277224
1.0377827973410318
1.054027731295782
1.0247321430925138
1.0340238080692223
1.0720978297759363
1.0654175249879732
1.0766798946545122
1.0694555788842377
1.059042762769845
1.0841870303605308
1.0751056403826869
1.0242341608176062
1.051239885063961
1.0196471584022186
1.009132017317036
1.0790605604441736
1.0704032868418603
1.0344440840153384
1.0027019287443215
1.0033117630441304
1.0039834856003442
1.0061443937708083
1.0075904861329106
1.0117381179561626
1.013196888497592
1.0208949261410838
1.053071309724885
1.0269045496472238
1.0769456444041523
1.0853522187162346
1.0490327880185477
1.0329781716926334
1.041576989650918
1.0531511118296035
1.002383161848927
1.0026694490941674
1.0039420201337135
1.0050220957914775
1.0079148794579535
1.009744209705691
1.0144742761915793
1.0255109052003955
1.0411379214258298
1.1079720452084667
1.099286023520708
1.0766662834661904
1.0879553951673806
1.060763101947438
1.0029736578970956
1.0032517454012175
1.0031708298509394
1.0612209806418567
1.0037528733542804
1.0043771883632544
1.005600508567998
1.0053644359058858
1.006901015222903
1.0083448213735795
1.0107082218280292
1.0101584751499504
1.0127991880436293
1.0154621816258569
1.0192795434334503
1.0265466413012008
1.0680749388501232
1.0320717416384162
1.0420101546228024
1.0488855437244264
1.017436356574947
1.0457874011960853
1.0304819250832558
1.0386472345874949
1.0014570877137638
1.021758345230574
1.0389659861896947
1.083777820358548
1.0744047095833151
1.0002569269956618
1.0282063084846198
1.0692429152957839
1.0781093806602589
1.0039402545990406
1.0875215336185309
1.077133149946643
1.0872136645881216
1.078325154333434
1.0690638949215947
1.0624278699774077
1.0620060744253323
1.0185976408158521
1.001053812494562
1.0163454188072079
1.0065917418292738
1.0761908803124924
1.0872105141431279
1.0528187246756482
1.0469710970366402

SCALARS Omega double
LOOKUP_TABLE default
4.1002759184991655
-10.327731525275187
-14.268651034746208
0.13217835416338564
4.492515281974113
-2.683795350089817
-4.473558268668347
3.542291835950347
1.0314782037890018
20.84264549874152
-8.188675978775958
-0.4094737054176103
-0.8985295638522318
-0.23421713628774823
-0.113694811268089
-0.030616171463280273
-0.11117255498808776
-0.18643805996738905
-0.656991478991871
-0.6110352962957777
-6.115746392791766
17.943669912222898
3.5124637621167696
-1.0379080940518408
0.145348593905317
0.033512172482731334
-0.32203078700873133
2.1113612749803092
1.091836382521927
0.7143018444701758
0.5849516088636892
0.532723811308762
0.5070780164163171
0.47819032909462483
0.44153717481899557
0.3974122375265063
0.3477333245178885
0.2962472281192958
0.24497995523422897
0.19618438070195773
0.15081046878130636
0.10952217067734916
0.07261538558513021
0.04033559111276373
0.01257206421753914
-0.011152771417022474
-0.03107902883983639
-0.0475215950640074
-0.060808207211873876
-0.07153795241645791
-0.08001001290207373
-0.08657941322851737
-0.0915100651166975
-0.09520134903763512
-0.09784744130577369
-0.099668868891379
-0.10080894243284616
-0.10145959359364165
-0.10170532760735199
-0.10162260853410464
-0.10124371738982932
-0.10058870338155272
-0.09964414515883147
-0.09833895965806629
-0.0966082991401811
-0.0943388518914635
-0.09142251219132763
-0.08762861850942787
-0.0827949709725543
-0.07668514505160891
-0.06909214043793678
-0.05954436226763422
-0.04780012607931029
-0.03366238395011962
-0.016470345662810443
0.003912721874907644
0.02774512162647363
0.05531098141502376
0.08677862062601158
0.1220384259168246
0.16057749339312616
0.20169081698376018
0.2440145775781767
0.2859360318507222
0.32478777135470394
0.3576020889794095
0.37954777825620867
0.3852485454662665
0.37065608939111416
0.33000279490201995
0.2610344525733136
0.16510949247341336
0.06635099432396917
0.3151063465293618
0.33936240546141533
-0.11646390597999055
-0.13091110638895725
-0.10570454239501352
-0.11366467212932375
-0.12385481462421732
0.7178329809514479
0.8448248044076452
0.04691982146865045
0.46988178986996404
0.40812517403979753
0.16695038905208104
0.002899024062007321
-0.07394997010213386
-0.10007673286174923
-0.10519327930048449
-0.10385222799066256
-0.10230474835950552
-0.0984335944411289
-0.08460431057915825
-0.0406840675028661
0.30651008803428026
0.09488952028073344
0.05186396898312692
0.21730195448972697
0.4399178988026392
0.5280591007800974
-0.10167682010607326
-0.09714741605317553
-0.10233674166517877
-0.08372449994278347
-0.09658798615443775
-0.0732014022505126
-0.011169651581000606
-0.048928925068662796
0.1162799472920936
0.3207479313801239
0.40938481449040687
0.49085176236712896
0.13352240144892008
2.2490596942373284
2.52740050511312
0.3156018738906014
0.007246141916240454
-0.31878444290909647
0.43428980020468766
-0.10230691894438637
-0.09981306449929801
-0.10035775951805202
-0.09157445248340394
-0.08710919295216492
-0.0687277779588516
-0.04655186059017488
0.04633594469492753
0.21351124803460042
0.04064193599775786
-0.14344268528894835
-0.11680269798806565
-0.12341989725197951
-0.10619265846707363
0.9676268553485009
0.5747829579751734
-0.031028042453908018
0.23799495305080248
0.1404997785665522
0.45038695936982237
0.22191044425796533
0.06523793317453372
-0.09858168285771068
0.3875238457864925
-0.03006702923987635
-0.4188853006434869
-0.1508159526487362
0.03255529577037546
0.2753750254648528
-0.1046139646993095
-0.10807310706559078
-0.10487949250303151
-0.11268702649275876
-0.10497060898328803
-0.11310449055769005
-0.08190524285137082
-0.07324148987829479
0.8361152747635682
0.6923072289182252
-0.20088529051736878
-0.09796434984242693
-0.14249668599046908
-0.20891481774227405
-0.11464597676999773
0.3216038607646947
0.3990831564433126
0.5432658582525888
0.5181515259522197
-0.3016412626894355
0.3762593887073734
0.4676880415529023
-0.10187990838553806
-0.10166653454909812
-0.1003801202917072
-0.09788045262057272
-0.10072522185427556
-0.09731234318033143
-0.08620276634725321
-0.09350157619319299
-0.09022908078742965
-0.07755974271550548
-0.07426667057246987
-0.05627118408660993
-0.02430564492711258
-0.05649556692872643
0.023022292906677143
0.08697938193733736
0.2689071216280779
0.17063053983434504
-0.6191917160368463
-0.5147480175029259
2.329444943648363
1.9777753626805126
-0.011510065028831963
-0.23817026464864643
-0.1206286879078272
0.16690696904446678
-1.0217327481596086
0.2655272624463343
0.18017405438744702
0.03920805808997586
0.10148505566373062
0.3466258981125296
-0.008564389339035526
0.3920922039671368
0.21860675496486398
0.36523560783594605
0.5338228480838842
0.7124936186885489
0.42341583110307146
0.49727149367522666
0.3222723374687234
0.2188046897183124
0.12752373864361338
0.053814352320517636
-0.0016582161714099044
-0.04142501703900262
-0.06553731504622896
-0.041219568306213455
-0.08055804937330978
-0.06760575483090579
-0.08431230208802402
-0.09007458277824228
-0.09402720223539138
-0.09918837147178253
-0.09582219378217646
-0.09921480814512489
-0.10139194000694851
-0.10183987249734708
-0.10107915295741009
0.013964350582030233
0.1398008566746661
0.30760339168738876
-0.26389227194340714
0.09726026374027946
0.6218180103903769
0.5337801987869135
2.9039948509307187
2.155647391935275
0.3856466259045662
0.4315956500470495
0.47340765165118365
0.0051633359929446785
0.30623774614170635
-0.024408291118598966
-0.2810120175226031
0.5921226235791696
0.5085898730338546
0.07552742100985425
-0.10321979158586142
-0.104725756627241
-0.10082699367974009
-0.10385424060467954
-0.09299400697767454
-0.08998549881326419
-0.0714718038014814
-0.0418269993094835
0.3101619208225167
0.03413773199582517
1.2523253912706442
1.478574488347311
0.2651629965099579
0.09037078927679898
0.18033208360301062
0.4136175115486534
-0.10536965413051134
-0.10433264667494142
-0.11016213867771095
-0.10444364397979217
-0.11199928618306536
-0.09772601505012038
-0.09915120423697134
-0.028489125840118756
0.14423144658594397
5.598342073906088
5.403330641291437
-0.012855458362617964
2.0975686309558017
0.48885285414523205
-0.10265554327626847
-0.10312012495784229
-0.10134831552049407
0.4019972783260146
-0.09983450913118158
-0.1026993485857991
-0.10100213199207707
-0.09586719950195696
-0.09123936758672774
-0.09487493674302401
-0.08671980637426699
-0.07943797584351636
-0.0671343958766669
-0.06531565941816012
-0.04228379520796334
0.011001314852475358
0.4886784709007998
0.06039650848691973
0.16287311384743344
0.243709824334455
-0.0690201989504782
0.22262621475233568
0.06938508005498686
0.149142087858125
-0.10985069469029657
-0.16829986794347868
0.15225016723044812
0.3821706114905616
0.3751901895935741
-0.0890044534060335
0.03241196873447585
0.4400057971036146
0.5321894995926041
-0.13409354235480134
0.466897192245623
0.011220024200871082
-0.5101378128238422
0.34085182727321894
1.0203181545669617
0.9271595230643633
0.3733245276157498
-0.026220025587814843
-0.17257190940596653
-0.05296528003480861
-0.16617328922747973
0.11856108732899327
1.2482114110268252
0.5729323209060266
-1.2167732020618545

SCALARS Vx_analytic double
LOOKUP_TABLE default
4.1002759184991655
-10.327731525275187
-14.268651034746208
0.13210616380657897
4.492515281974113
-2.683795350089817
-4.473558268668347
3.542291835950347
1.0314782037890018
20.84264549874152
-8.188675978775958
-0.4094737054176103
-0.8985295638522318
-0.23421713628774823
-0.113694811268089
-0.030616171463280273
-0.11117255498808776
-0.18643805996738905
-0.6569914789918708
-0.6110352962957777
-6.115746392791766
17.943669912222898
3.513264758993533
-1.0157705248700757
0.14755584587237613
0.03451961603667646
-0.32007558875744435
2.1113612749803092
1.091836382521927
0.7143018444701758
0.5849516088636892
0.532723811308762
0.5070780164163171
0.47819032909462483
0.44153717481899557
0.3974122375265063
0.3477333245178885
0.2962472281192958
0.24497995523422897
0.19618438070195773
0.15081046878130636
0.10952217067734916
0.07261538558513021
0.04033559111276373
0.01257206421753914
-0.011152771417022474
-0.03107902883983639
-0.0475215950640074
-0.060808207211873876
-0.07153795241645791
-0.08001001290207373
-0.08657941322851737
-0.0915100651166975
-0.09520134903763512
-0.09784744130577369
-0.099668868891379
-0.10080894243284616
-0.10145959359364165
-0.10170532760735199
-0.10162260853410464
-0.10124358412924152
-0.10058873607161811
-0.09964430773027799
-0.09833943025794374
-0.09660914081654037
-0.0943406472478011
-0.09142487307393343
-0.08763236305198602
-0.08279988358147881
-0.0766933145907215
-0.06910183224118058
-0.05955849472311005
-0.04782021165235848
-0.03366987146231741
-0.01648298643864283
0.003890631143591968
0.027723557138680074
0.05529933383978415
0.08676996602410911
0.12202186374213485
0.16057589151940282
0.20171075737746563
0.24406750538783195
0.28600252586521197
0.32489736921244683
0.3577135876051089
0.3797284796765377
0.38560125564955805
0.37102878273446493
0.3304078164923025
0.26136865450926977
0.16535214965381204
0.0663078759525811
0.3072887119501817
0.337170247758488
-0.11573691445251828
-0.13079868190253693
-0.10570445462904679
-0.1137271278954979
-0.12456338031464252
0.72699990943878
0.8347614775360791
0.04600778359114118
0.4679911791346949
0.4105077706399167
0.16692225164707883
0.0031381537111181586
-0.07378163416116362
-0.10001295972977514
-0.10517820394988756
-0.1038497060468305
-0.10230747075894654
-0.09846560351628533
-0.08472791351637474
-0.04101516925112809
0.30863201093288833
0.10164116278612337
0.051539324523840385
0.2175452368586242
0.4422808912347727
0.5270414829662498
-0.10167644960843032
-0.09715568930612561
-0.10233336970229213
-0.08376689030240028
-0.09657194710675594
-0.07315486889362738
-0.011100042204778468
-0.04907267444684615
0.11625422258437242
0.32025888387151913
0.4115963388710862
0.4921553237477372
0.13340807222930523
2.256243393515256
2.4658837804872693
0.3162018278841402
0.007047901048533487
-0.31995413753299806
0.43353042220396476
-0.1023055399732651
-0.09981497795277923
-0.10034986393040606
-0.09158982368863294
-0.08707881271093833
-0.06878327636327486
-0.04648058734278979
0.04641307682567526
0.21338990341302938
0.041510418680680033
-0.1429968156581299
-0.11677202168498833
-0.12376080578748767
-0.10620365378552869
0.8926156862199616
0.5831068709730507
-0.03178193550862462
0.23793758347321498
0.14188691955574906
0.4592256443935162
0.22203954690700164
0.06507964167737249
-0.09858218350745951
0.3884756962101044
-0.030154541448276367
-0.4175152201685226
-0.15089921336983558
0.03283367689440735
0.2746373857853191
-0.1046142949757907
-0.10806226592127943
-0.10490410739884132
-0.11263171732668519
-0.10508796049241892
-0.11291023422715349
-0.0822917271697829
-0.07287517071611149
0.8282368577390872
0.6979120406680778
-0.20067010803327365
-0.09797287140005306
-0.14243637834717043
-0.2098565990955114
-0.11468593168395937
0.32292034452570373
0.4004666390980201
0.5455844706130213
0.5182086627290287
-0.30079428175955963
0.3759628564383713
0.4672921846391386
-0.10187916236482077
-0.10166603832201575
-0.10038093905978066
-0.09788429254876885
-0.10072356617448897
-0.09730861068731064
-0.08622555636558445
-0.09351363070396917
-0.09022272499555616
-0.07754936569008779
-0.07431725662544159
-0.05634821057491453
-0.024294719205224934
-0.05648489305594579
0.023014320378803688
0.0869473584649027
0.26873273741159687
0.17053357195161684
-0.6002063378959108
-0.5404012983317545
2.332488858096812
1.9952132938208726
-0.01425768673632424
-0.23526669199573277
-0.12196108722057553
0.16889599937406638
-1.0064290832450378
0.2657666945401221
0.18013843720157582
0.03905277292517081
0.10135720924107376
0.3473629454749179
-0.00868204374405697
0.39328296499832605
0.2197153182979773
0.3663372076149459
0.5347504835469475
0.7167238589736594
0.4231121530718575
0.4970540442507352
0.32210868422540134
0.21875290286694962
0.12752076636224646
0.053845926104011226
-0.001629852459704887
-0.041509281581696256
-0.06558553132725879
-0.041190325170790666
-0.08058585544365945
-0.06758789340929465
-0.08429977835431476
-0.09008787786070131
-0.0940210485734086
-0.09918516940960198
-0.09582797266135701
-0.0992165923923864
-0.10139074465390616
-0.10183940675683896
-0.10107924568948963
0.013841453419767013
0.13970898007466118
0.3079793453699401
-0.26982969957508435
0.09687562833467064
0.6181302160210922
0.5377278404304894
2.8036407000158903
1.988320328458435
0.3871704794130655
0.4280198187093461
0.47752185753395027
0.004782172874862097
0.3069592101310001
-0.024647514369130444
-0.28242598575952227
0.5891891458749374
0.512402458905049
0.07570065869231195
-0.10321928350406294
-0.10471994279956257
-0.10083979105629909
-0.1038212482921193
-0.09306492961787789
-0.08988169275431114
-0.07166010371013608
-0.04160723536530033
0.3094428080901104
0.03395685975485048
1.2650000916966182
1.4602336352703105
0.2655948434943721
0.09019194364124526
0.18038735974299644
0.4148560401860658
-0.10536664856430344
-0.10433719412190562
-0.11013452695859988
-0.10448574670983313
-0.11189006562290617
-0.09790406593216291
-0.09883280119783625
-0.028030276543994502
0.14415511799043956
5.320999245513606
5.209113288970886
-0.012093025909755419
2.0940040566358546
0.48593035323834927
-0.10265407464115968
-0.10311772226629413
-0.10134993222836709
0.4010915261713567
-0.09983987773875569
-0.10269152375660455
-0.10098748692494111
-0.09588776182698049
-0.0912721690684881
-0.09484117759079622
-0.0866675376887938
-0.07952031846248625
-0.06724610391161592
-0.06522430753184698
-0.042170727581424976
0.011132049604969971
0.4872497924199662
0.06049743766620432
0.16281890238110833
0.2434382230388982
-0.06947962559785975
0.22266455740194932