# vtk DataFile Version 1.0
2D Simulation C++
ASCII
DATASET UNSTRUCTURED_GRID
FIELD FieldData 1
NODES 1 2 int
348 601

POINTS 348 double
0.0 0.5 0.0
0.0 1.0 0.0
2.0 1.0 0.0
2.0 0.5 0.0
0.0 0.528801679611206 0.0
0.0 0.564507782459259 0.0
0.0 0.6110168099403381 0.0
0.0 0.6721802353858948 0.0
0.0 0.7528436183929443 0.0
0.0 0.8593378663063049 0.0
0.16666941344738007 1.0 0.0
0.3333356976509094 1.0 0.0
0.5000020265579224 1.0 0.0
0.6666678786277771 1.0 0.0
0.8333337306976318 1.0 0.0
1.0 1.0 0.0
1.1666662693023682 1.0 0.0
1.3333321809768677 1.0 0.0
1.4999979734420776 1.0 0.0
1.6666642427444458 1.0 0.0
1.8333306312561035 1.0 0.0
2.0 0.8593378663063049 0.0
2.0 0.7528436183929443 0.0
2.0 0.6721802353858948 0.0
2.0 0.6110168099403381 0.0
2.0 0.564507782459259 0.0
2.0 0.528801679611206 0.0
0.029850948601961136 0.5 0.0
0.05970168858766556 0.5 0.0
0.08955242484807968 0.5 0.0
0.1194031685590744 0.5 0.0
0.14925390481948853 0.5 0.0
0.17910465598106384 0.5 0.0
0.20895539224147797 0.5 0.0
0.2388061285018921 0.5 0.0
0.2686568796634674 0.5 0.0
0.29850760102272034 0.5 0.0
0.32835835218429565 0.5 0.0
0.35820910334587097 0.5 0.0
0.3880598247051239 0.5 0.0
0.4179105758666992 0.5 0.0
0.44776129722595215 0.5 0.0
0.47761204838752747 0.5 0.0
0.5074627995491028 0.5 0.0
0.5373135209083557 0.5 0.0
0.5671642422676086 0.5 0.0
0.5970150232315063 0.5 0.0
0.6268657445907593 0.5 0.0
0.6567164659500122 0.5 0.0
0.6865672469139099 0.5 0.0
0.7164179682731628 0.5 0.0
0.7462686896324158 0.5 0.0
0.7761194705963135 0.5 0.0
0.8059701919555664 0.5 0.0
0.8358209133148193 0.5 0.0
0.865671694278717 0.5 0.0
0.89552241563797 0.5 0.0
0.9253731369972229 0.5 0.0
0.9552239179611206 0.5 0.0
0.9850746393203735 0.5 0.0
1.0149253606796265 0.5 0.0
1.0447760820388794 0.5 0.0
1.0746268033981323 0.5 0.0
1.1044776439666748 0.5 0.0
1.1343283653259277 0.5 0.0
1.1641790866851807 0.5 0.0
1.1940298080444336 0.5 0.0
1.2238805294036865 0.5 0.0
1.2537312507629395 0.5 0.0
1.2835819721221924 0.5 0.0
1.3134328126907349 0.5 0.0
1.3432835340499878 0.5 0.0
1.3731342554092407 0.5 0.0
1.4029849767684937 0.5 0.0
1.4328356981277466 0.5 0.0
1.4626864194869995 0.5 0.0
1.492537260055542 0.5 0.0
1.522387981414795 0.5 0.0
1.5522387027740479 0.5 0.0
1.5820894241333008 0.5 0.0
1.6119401454925537 0.5 0.0
1.6417908668518066 0.5 0.0
1.6716417074203491 0.5 0.0
1.701492428779602 0.5 0.0
1.731343150138855 0.5 0.0
1.761193871498108 0.5 0.0
1.7910445928573608 0.5 0.0
1.8208953142166138 0.5 0.0
1.8507460355758667 0.5 0.0
1.8805968761444092 0.5 0.0
1.910447597503662 0.5 0.0
1.940298318862915 0.5 0.0
1.970149040222168 0.5 0.0
1.7358819246292114 0.7499510645866394 0.0
0.2656642198562622 0.7486277222633362 0.0
0.49981194734573364 0.737183690071106 0.0
0.74151611328125 0.7359843254089355 0.0
0.9774143695831299 0.7371892929077148 0.0
1.201690912246704 0.7367381453514099 0.0
1.447761058807373 0.7383390665054321 0.0
1.8591958284378052 0.6421071290969849 0.0
0.14080412685871124 0.6421071290969849 0.0
1.588537573814392 0.6783608794212341 0.0
0.2553686201572418 0.6221352219581604 0.0
1.7466964721679688 0.6278358101844788 0.0
0.38199201226234436 0.6273008584976196 0.0
0.5013589859008789 0.6272794008255005 0.0
0.6207823157310486 0.6272526383399963 0.0
0.7401852607727051 0.627252459526062 0.0
0.8595882654190063 0.6272523999214172 0.0
0.9701492786407471 0.6212864518165588 0.0
1.0807102918624878 0.6272523999214172 0.0
1.2001131772994995 0.6272523999214172 0.0
1.3195161819458008 0.6272523999214172 0.0
1.4488563537597656 0.6310953497886658 0.0
1.9247323274612427 0.5706554055213928 0.0
0.07526770234107971 0.5706554055213928 0.0
1.5377081632614136 0.5910930037498474 0.0
1.6566967964172363 0.5934624075889587 0.0
1.8074009418487549 0.5708622932434082 0.0
0.1940300166606903 0.5737577676773071 0.0
1.0286364555358887 0.5665481686592102 0.0
1.14803946018219 0.5665481686592102 0.0
0.9116620421409607 0.5665481686592102 0.0
1.2674424648284912 0.5665481686592102 0.0
0.7922590970993042 0.5665481686592102 0.0
0.6728560328483582 0.5665482878684998 0.0
0.5534531474113464 0.5665481686592102 0.0
1.3892061710357666 0.5727682709693909 0.0
0.43402159214019775 0.5665869116783142 0.0
0.3146642744541168 0.5667200088500977 0.0
1.8656742572784424 0.5607567429542542 0.0
0.1343258023262024 0.5607567429542542 0.0
1.5970147848129272 0.5642029047012329 0.0
1.8783670663833618 0.7786769866943359 0.0
0.12163297086954117 0.7786769866943359 0.0
1.7164177894592285 0.562579333782196 0.0
1.4776118993759155 0.5620538592338562 0.0
1.5857784748077393 0.867691159248352 0.0
0.25373148918151855 0.5588531494140625 0.0
0.9701492786407471 0.5582930445671082 0.0
1.0895521640777588 0.5582930445671082 0.0
0.8507462739944458 0.5582930445671082 0.0
1.20895516872406 0.5582930445671082 0.0
0.7313433289527893 0.5582930445671082 0.0
1.3283581733703613 0.5582930445671082 0.0
0.6119403839111328 0.5582930445671082 0.0
0.49253740906715393 0.5582930445671082 0.0
0.37313446402549744 0.5582956075668335 0.0
0.36864349246025085 0.7376502752304077 0.0
0.602456271648407 0.7355343103408813 0.0
0.8441241383552551 0.7366551756858826 0.0
1.3355978727340698 0.7366551160812378 0.0
1.0895521640777588 0.7378703355789185 0.0
0.07051979005336761 0.6486480832099915 0.0
1.9294801950454712 0.6486480832099915 0.0
1.5086064338684082 0.6743985414505005 0.0
1.6785967350006104 0.6649783849716187 0.0
1.9543375968933105 0.5452249050140381 0.0
0.04566239193081856 0.5452249050140381 0.0
1.6567095518112183 0.5496091842651367 0.0
1.53738272190094 0.5491842031478882 0.0
0.91306072473526 0.8965699672698975 0.0
1.7782752513885498 0.5446287989616394 0.0
1.4163299798965454 0.5447981357574463 0.0
0.4287482798099518 0.8945969939231873 0.0
1.2610714435577393 0.8950135707855225 0.0
0.4313095211982727 0.6832783222198486 0.0
0.31561949849128723 0.6858259439468384 0.0
1.029850721359253 0.6781684160232544 0.0
0.9082015752792358 0.6848641633987427 0.0
1.1492537260055542 0.6781684160232544 0.0
0.7886138558387756 0.678956151008606 0.0
1.2709345817565918 0.684736430644989 0.0
0.6685023903846741 0.6868807673454285 0.0
1.4007169008255005 0.6702371835708618 0.0
0.5483440160751343 0.6792802214622498 0.0
0.19808045029640198 0.6887137293815613 0.0
1.797759771347046 0.6853783130645752 0.0
0.6811949610710144 0.8757594227790833 0.0
1.0189321041107178 0.8474968671798706 0.0
0.7922950983047485 0.8446238040924072 0.0
1.3765455484390259 0.8590760827064514 0.0
1.1571698188781738 0.8478953838348389 0.0
1.8954496383666992 0.5359624624252319 0.0
1.8360060453414917 0.5359931588172913 0.0
0.10455036163330078 0.5359624624252319 0.0
0.16417928040027618 0.5353734493255615 0.0
0.5530290007591248 0.8422092199325562 0.0
0.2832632064819336 0.5367912650108337 0.0
0.22469767928123474 0.5394234657287598 0.0
0.9405550956726074 0.5357381105422974 0.0
0.9997434020042419 0.5357381105422974 0.0
1.0600273609161377 0.5365630984306335 0.0
1.1191463470458984 0.5357381105422974 0.0
0.8802711367607117 0.5365630984306335 0.0
0.8211521506309509 0.5357381105422974 0.0
1.2385493516921997 0.5357381105422974 0.0
1.179430365562439 0.5365630984306335 0.0
0.7608681321144104 0.5365630984306335 0.0
0.7017492055892944 0.5357381105422974 0.0
1.2988333702087402 0.5365630984306335 0.0
1.357560396194458 0.5390686392784119 0.0
0.5823462605476379 0.5357381105422974 0.0
0.6414651870727539 0.5365630984306335 0.0
0.5220622420310974 0.5365630984306335 0.0
0.4629422128200531 0.535739541053772 0.0
0.3435409665107727 0.5357455015182495 0.0
0.4026572108268738 0.5365669131278992 0.0
0.21006634831428528 0.8590372204780579 0.0
1.7943172454833984 0.8627070188522339 0.0
0.06134982034564018 0.7191494703292847 0.0
1.938650131225586 0.7191494703292847 0.0
1.634666085243225 0.7584379315376282 0.0
0.3355695903301239 0.8387951850891113 0.0
1.537941336631775 0.7633647918701172 0.0
1.9670078754425049 0.574067234992981 0.0
0.032992132008075714 0.574067234992981 0.0
1.6862140893936157 0.5314788222312927 0.0
1.6272135972976685 0.5317342281341553 0.0
1.5077245235443115 0.5309156775474548 0.0
1.5668202638626099 0.5316618084907532 0.0
1.7466963529586792 0.5298213958740234 0.0
1.4473658800125122 0.5297333002090454 0.0
1.804386019706726 0.5275400876998901 0.0
1.9283779859542847 0.5282225012779236 0.0
1.8656879663467407 0.5267112255096436 0.0
0.13432854413986206 0.5271331071853638 0.0
0.07162196189165115 0.5282225012779236 0.0
0.25373148918151855 0.527070939540863 0.0
0.19419340789318085 0.5297109484672546 0.0
0.31349387764930725 0.5272363424301147 0.0
0.37313446402549744 0.5270199179649353 0.0
0.4329495429992676 0.5274069309234619 0.0
0.49253740906715393 0.5270196795463562 0.0
0.5523557066917419 0.5274024605751038 0.0
1.3898069858551025 0.5277745127677917 0.0
1.3283581733703613 0.5270196795463562 0.0
0.6119403839111328 0.5270196795463562 0.0
1.2685397863388062 0.5274024605751038 0.0
0.6717586517333984 0.5274024605751038 0.0
0.7313433289527893 0.5270196795463562 0.0
1.20895516872406 0.5270196795463562 0.0
0.7911616563796997 0.5274024605751038 0.0
0.8507462739944458 0.5270196795463562 0.0
1.1491369009017944 0.5274024605751038 0.0
1.0895521640777588 0.5270196795463562 0.0
0.9105646014213562 0.5274024605751038 0.0
0.9701492786407471 0.5270196795463562 0.0
1.0297338962554932 0.5274024605751038 0.0
1.4776118993759155 0.5259945392608643 0.0
1.597015619277954 0.5255197882652283 0.0
1.7164177894592285 0.525999903678894 0.0
1.6834615468978882 0.8477573990821838 0.0
1.5822722911834717 0.6086509227752686 0.0
0.20459823310375214 0.6270732283592224 0.0
1.8037469387054443 0.6209055185317993 0.0
0.09990309923887253 0.8589919805526733 0.0
1.9000968933105469 0.8589919805526733 0.0
1.75603187084198 0.5789161324501038 0.0
0.10896337777376175 0.5982794761657715 0.0
1.8910366296768188 0.5982794761657715 0.0
1.4950518608093262 0.605266273021698 0.0
1.7049394845962524 0.6007562279701233 0.0
1.4387125968933105 0.5775743722915649 0.0
1.489302158355713 0.851039469242096 0.0
0.15732239186763763 0.5961292386054993 0.0
1.8436260223388672 0.5944437384605408 0.0
0.4399496018886566 0.6259797215461731 0.0
1.022565245628357 0.6257523894309998 0.0
[...]
POINT_DATA 348
SCALARS Psi double
LOOKUP_TABLE default
1.087898474505916
1.0
1.0
1.0766684692566435
1.0877880062308722
1.0875451104726928
1.089146808444083
1.0938728055774982
1.1033510760285985
1.1418217491790534
1.0
1.0
1.0
1.0
1.0
1.0
1.0
1.0
1.0
1.0
1.0
1.134268546394865
1.094275124240967
1.0844750354831836
1.0798819113724083
1.0777145537983464
1.0768590541920278
1.0879812890902036
1.0867118737203636
1.0848223047272982
1.0824207999612747
1.0794798105856354
1.0760237479536154
1.0721218737328317
1.0678672938765639
1.0633834607860366
1.058758476421606
1.0540920620728167
1.0494630468909532
1.0449565223378594
1.0406243933955623
1.0364944248356216
1.0325996192880902
1.0289672844690545
1.0256109400015723
1.022518384511846
1.01969449682632
1.0171381906735348
1.0148448620382082
1.012790584415185
1.0109687791865194
1.0093691715629325
1.007982624613265
1.0067887562643614
1.0057803759758295
1.0049494028548855
1.004289002796237
1.0037866646418077
1.0034382993190756
1.0032411995659942
1.0031934442639978
1.0032914481784267
1.0035346311375262
1.0039285742433681
1.0044762170590074
1.0051807818982694
1.0060462357462
1.00708595290702
1.0083062724644192
1.0097144700031635
1.011316260526928
1.013134552845831
1.0151740580343678
1.0174309700493616
1.0199346785756136
1.02267649309015
1.0256555034855552
1.028872214843619
1.0323240682515793
1.0359903891850208
1.0398395377927874
1.0438338440270778
1.0479255363452407
1.052054303256231
1.0561439082955986
1.060107257991801
1.063838174018797
1.067240212774822
1.0702047587100603
1.0726291927367775
1.0744756476863013
1.075749127457689
1.0764613444357802
1.0467867111097493
1.0518854974995282
1.0201199545674655
1.0058086488405233
1.0016730890732297
1.0036439487144653
1.0139159671409288
1.0733682570847232
1.0821127466395313
1.0311074484642178
1.06353431099245
1.0566896057905462
1.042553003594728
1.0268241535057527
1.015624362388414
1.0084497788026159
1.0043633587493614
1.0028457867716802
1.0030421303403583
1.005401094404001
1.0102988518924474
1.0190457071421462
1.0762815970208393
1.0856765450456376
1.0292513434324908
1.0445295116975024
1.0659083918864367
1.0740341916067127
1.0030690600136967
1.0045811566254814
1.0038189305409804
1.008611711426917
1.0070315646224717
1.013238459437157
1.0232041804416898
1.0157540903958497
1.0374860201990441
1.055478417970922
1.0719808302860108
1.0811616401264974
1.03720696160751
1.0782438794756353
1.0863580194891431
1.0536728172764975
1.0235734735172664
1.0130768691662635
1.0652546100949454
1.003197052473012
1.0035798881935636
1.0051657431279082
1.0063427129972866
1.009847796855545
1.011873277050546
1.017911442659961
1.0300947466121209
1.0464794892479858
1.0356947694515561
1.0123546184430492
1.0031387426964236
1.0079927420496282
1.0019375177825478
1.090263855737426
1.0807843178728147
1.0226367967517502
1.0445797931518377
1.0766486529924721
1.0869297742305106
1.0454993564028203
1.0301804044160852
1.0004324779457143
1.0622233994946004
1.0182593122279595
1.0105238643737662
1.0014801910947344
1.0321300518410061
1.049402649176792
1.0022866924228704
1.0028325832447516
1.0035487593324015
1.0056184817133789
1.0068375194662318
1.0105844966847408
1.0140169693415877
1.019584624620579
1.0716959174673082
1.0635402041394357
1.0033690888747582
1.0005515289266014
1.0019091530081181
1.0044737988317909
1.0011770794818948
1.0738826786534978
1.0689326686853935
1.0837058532098633
1.0778577788647878
1.0080518454116585
1.0609556648015965
1.0698224662033136
1.0035449095528763
1.003156898113381
1.0033514355710713
1.0041283491621866
1.004548002359485
1.0061844091927707
1.0075849559331447
1.0055370177879106
1.008572133313085
1.0117220718823767
1.0104033157148817
1.0139270178227942
1.0208731770420247
1.015833421637721
1.0270743050415625
1.0342521732263164
1.0515054291938806
1.0425620823573973
1.0395567065611522
1.0362112339411227
1.0980435920039107
1.0884747659977334
1.030222629367309
1.0266177484462173
1.0193764487887338
1.0777981806244412
1.0869960836179238
1.0498144934644762
1.0417081050560868
1.0271153359102452
1.033926273625816
1.058149944639414
1.0211277923836972
1.0654241818171084
1.0754785720491216
1.0715896555247895
1.0810291667557013
1.0859076136182255
1.0655604214028793
1.0740717861640978
1.0562842958538765
1.047032371277881
1.0383626599147844
1.0306044752124552
1.0238980839152592
1.0163204858116244
1.0121235364305845
1.0182792587005478
1.0089275203721786
1.0137006778721829
1.0100775781267808
1.006500390288761
1.007310283235065
1.0053049710572743
1.0047733073656624
1.0036843055083042
1.003987408849439
1.003294880301142
1.0031996899315194
1.0240373575829016
1.0377827111537778
1.0540276655971712
1.0247321279254595
1.0340237284795029
1.072097795405375
1.0654174776673155
1.0766798885028075
1.069455570011368
1.0590427058657
1.084187003858443
1.0751055971259482
1.024234064388061
1.0512398238739742
1.019647045420231
1.0091319940554682
1.0790605294258175
1.0704032401573662
1.0344440063442937
1.0027017717232878
1.0033116066653605
1.0039833364085753
1.006144247240409
1.007590352498458
1.011737989708241
1.013196772196864
1.020894821976339
1.0530712580073485
1.0269044500744045
1.0769456125866208
1.0853521982253387
1.049032720072613
1.032978082811424
1.0415769128202028
1.0531510677116247
1.0023830257252764
1.0026693188057276
1.003941891133647
1.0050219755394474
1.0079147626328087
1.0097441058479257
1.0144741786151448
1.0255108295520206
1.041137867962152
1.1079720339972974
1.0992860060360785
1.0766662395483482
1.0879553704915894
1.0607630654084093
1.0029734870243028
1.0032515757368847
1.0031706622359364
1.061220931349358
1.0037527086784614
1.0043770222429043
1.0056003462581147
1.005364279887041
1.0069008653554932
1.0083446693184088
1.0107080771129568
1.010158338085701
1.012799059173116
1.0154620518406443
1.0192794234283054
1.0265465388355393
1.0680748969585923
1.0320716499156888
1.042010080388029
1.0488854790191844
1.0174362726640083
1.0457873258268344
1.0304818268431872
1.0386471657761427
1.0014570165754397
1.0217583110289148
1.0389659103822093
1.0837777927920274
1.0744046642619007
1.0002569121773368
1.028206227624293
1.0692428658326425
1.0781093475385546
1.0039401956853702
1.0875215093190733
1.0771331067684862
1.087213640991445
1.0783251134840632
1.069063875364846
1.0624278431759822
1.0620060165734528
1.0185975169905475
1.0010538007721417
1.0163453081958276
1.006591681752712
1.0761908357874146
1.0872104888628649
1.0528187222834886
1.0469710938931727

SCALARS Omega double
LOOKUP_TABLE default
4.100276591395943
-10.32773079543625
-14.268649563397819
0.13217857056878135
4.492515426469
-2.683794553308039
-4.4735576606347776
3.542292223091474
1.0314781535196789
20.842645460337327
-8.188675201154151
-0.4094725223251741
-0.8985275653939635
-0.2342139594276323
-0.11369097867138869
-0.03061211119021876
-0.11116900932421182
-0.1864350413119009
-0.6569892800265931
-0.6110339256923766
-6.115745385050965
17.943670585109473
3.5124636782393397
-1.0379081270119719
0.145348283650199
0.03351225769580904
-0.3220314024801583
2.1113617298256835
1.0918367791702728
0.7143021740896052
0.5849518485730455
0.5327239424929724
0.507078022978102
0.47819019534533647
0.44153688695108484
0.3974117805670878
0.34773268551741576
0.29624639566452454
0.2449789202427594
0.19618313349197436
0.15080900292460955
0.10952048225670238
0.07261347350639584
0.04033345357912719
0.012569702993087668
-0.011155351329583679
-0.031081819755355514
-0.047524590627115
-0.06081139786221067
-0.07154132509423826
-0.08001355261642568
-0.08658310712087386
-0.09151389784999577
-0.09520530149861815
-0.09785149337483826
-0.09967300325199631
-0.10081314043691446
-0.10146383312963939
-0.10170958672120216
-0.10162686877438261
-0.10124796093657823
-0.10059290948863285
-0.09964829274356633
-0.0983430316658469
-0.0966122801244767
-0.094342723949684
-0.09142625853745044
-0.0876322266843117
-0.08279843107413107
-0.07668844523080263
-0.06909527064199945
-0.059547317291032166
-0.0478029032499655
-0.033664973885461066
-0.016472751712206083
0.0039104991140381665
0.027743081704730558
0.05530912053745785
0.08677693338047433
0.12203690492204723
0.16057613136084092
0.20168960504348035
0.24401350578082212
0.28593508886973823
0.3247869460039557
0.35760137009316845
0.3795471549340502
0.38524800492436767
0.37065562196717716
0.3300023908604642
0.26103410293980756
0.16510919313831618
0.06635078647370442
0.3151066787097471
0.33936277925755876
-0.11646412749211907
-0.1309118566744288
-0.10570544244128652
-0.11366535237417966
-0.12385496956468661
0.7178328075969653
0.8448250621504666
0.046919300114871026
0.46988162820800145
0.40812474717935593
0.1669496075582855
0.0028975471754240445
-0.07395212630508854
-0.10007944145244894
-0.10519634428525593
-0.10385548595556188
-0.10230780758084856
-0.09843631749301346
-0.08460653283898442
-0.04068562454058426
0.3065098106909813
0.09488991775557153
0.05186250842975465
0.2173010543421901
0.43991741008698215
0.5280590909252945
-0.10168073739804158
-0.09715105264443337
-0.1023406554709998
-0.08372762102510711
-0.09659159909592313
-0.07320444395688377
-0.011171932718893558
-0.048931336381646484
0.11627850663337586
0.32074728071659464
0.4093844304730229
0.49085197054207047
0.13352109534942394
2.2490601200616154
2.527400928682849
0.31560108615767357
0.007244176733277021
-0.3187831354448907
0.4342894838820166
-0.10231092622108566
-0.09981692806405495
-0.10036161191588977
-0.09157790155478082
-0.08711259275202933
-0.06873062135340884
-0.046554572856952095
0.04633405892939491
0.21351020278403893
0.040642050454336796
-0.14344316639389282
-0.11680355787946956
-0.1234202943551212
-0.10619346693417461
0.967627232860946
0.5747828401965968
-0.031028869523733345
0.2379945714030001
0.1404995144512811
0.45038740922754594
0.2219093738206377
0.06523625353622167
-0.09857906644497498
0.38752322420554003
-0.030069434434408196
-0.41888398810740035
-0.15081365778138672
0.032554703942987956
0.2753749214094992
-0.10461616328969564
-0.10807518480278738
-0.10488149130466567
-0.11268902260609172
-0.10497213967851762
-0.1131059982185373
-0.08190653120131415
-0.07324263405403718
0.8361155033640395
0.6923071888276459
-0.20088340153447257
-0.09796264604998069
-0.14249513301138933
-0.20891313998483493
-0.11464430760699988
0.32160350023333045
0.39908267500532235
0.5432661528299467
0.5181516061358524
-0.3016400703848653
0.37625886709556094
0.4676878473958343
-0.10188407620136267
-0.10167070349686255
-0.1003842107955596
-0.09788440007489191
-0.10072930314616284
-0.09731626898273922
-0.08620622829729144
-0.09350530320948833
-0.09023276549149187
-0.07756313163718367
-0.07426981170367844
-0.05627397508185095
-0.02430827553348387
-0.05649859200342598
0.02302009819072498
0.0869776229382183
0.26890621586201646
0.1706292235308011
-0.6191909294917706
-0.5147470841169232
2.3294452251188216
1.977775432656215
-0.011509735355369321
-0.2381694070022977
-0.12062838988453572
0.16690677657347602
-1.0217322041323533
0.2655262803328795
0.18017280045770023
0.03920614717657373
0.10148348527304155
0.3466251469721348
-0.008566668969854594
0.3920916325696127
0.21860644186065775
0.3652351841192119
0.5338230402322616
0.7124939981819771
0.42341547286753645
0.49727144014898783
0.3222716188816115
0.21880357136845574
0.12752218731498752
0.05381235952117411
-0.001660651917252734
-0.04142765044564328
-0.06554031119323034
-0.04122242055253238
-0.08056138243522502
-0.06760899316182356
-0.08431587013587322
-0.09007820841112064
-0.09403104486061696
-0.0991924107517363
-0.09582606824290756
-0.09921886260678435
-0.1013961046772705
-0.10184407580575003
-0.1010833229589119
0.013962250849885371
0.139799439122408
0.3076025263571064
-0.2638912731573921
0.09725913339108794
0.621818059633519
0.5337798651870631
2.903995377801658
2.1556482072658576
0.38564602074543336
0.4315959595356608
0.4734073822376133
0.005161758004362476
0.30623706254320027
-0.024410384897524395
-0.28101069591499045
0.5921227818732236
0.5085895250222005
0.07552629316157293
-0.10322296887731201
-0.10472893921779593
-0.10082993819186375
-0.10385718316140931
-0.09299651549749129
-0.08998797085806902
-0.07147385155956869
-0.04182883895740636
0.3101615018917644
0.0341359903744264
1.2523254612617787
1.4785748227904978
0.26516210034469784
0.09036934035610016
0.1803309547058479
0.41361737900018675
-0.10537196689889448
-0.10433475528592208
-0.11016426596226703
-0.1044455063240294
-0.11200116001573455
-0.09772746947777192
-0.09915262606974255
-0.02849004325169049
0.14423106337711813
5.598342302591983
5.403331021629097
-0.012855761300066215
2.09756903071055
0.4888528703124093
-0.10265928973091959
-0.10312383634480479
-0.10135194605798144
0.40199689968103325
-0.09983805538478525
-0.10270297647368183
-0.10100566888395389
-0.09587048404946592
-0.09124247914476216
-0.09487819303128239
-0.08672286982800695
-0.07944071603574122
-0.06713690872751456
-0.06531830849045032
-0.04228617850092956
0.010999425356935802
0.4886783081711027
0.060394918391828666
0.16287202191327954
0.2437090018556929
-0.0690211703721677
0.2226250902268054
0.06938332803352935
0.1491412761468512
-0.10985028243038372
-0.16829937846686147
0.1522491060044089
0.38217091777778545
0.37518986524013875
-0.08900149604138916
0.032410881777238394
0.4400053669957516
0.5321896093696202
-0.13409298090490074
0.46689768371791496
0.011219789280987375
-0.5101373601021089
0.34085160636942974
1.0203185730901565
0.9271598518391004
0.37332386665027517
-0.026222501830744944
-0.17256911002195363
-0.05296720420535745
-0.16617295466227533
0.11856080318455782
1.24821182624218
0.5729328676153678
-1.2167721124874913

SCALARS Vx_analytic double
LOOKUP_TABLE default
4.100276591395943
-10.32773079543625
-14.268649563397819
0.1321063796443729
4.492515426469
-2.683794553308039
-4.4735576606347776
3.542292223091474
1.0314781535196789
20.842645460337327
-8.188675201154151
-0.4094725223251741
-0.8985275653939635
-0.2342139594276323
-0.11369097867138869
-0.03061211119021876
-0.11116900932421182
-0.1864350413119009
-0.6569892800265928
-0.6110339256923766
-6.115745385050965
17.943670585109473
3.5132646958976426
-1.0157705221644577
0.147555539877841
0.03451969899726078
-0.3200761990904548
2.1113617298256835
1.0918367791702728
0.7143021740896052
0.5849518485730455
0.5327239424929724
0.507078022978102
0.47819019534533647
0.44153688695108484
0.3974117805670878
0.34773268551741576
0.29624639566452454
0.2449789202427594
0.19618313349197436
0.15080900292460955
0.10952048225670238
0.07261347350639584
0.04033345357912719
0.012569702993087668
-0.011155351329583679
-0.031081819755355514
-0.047524590627115
-0.06081139786221067
-0.07154132509423826
-0.08001355261642568
-0.08658310712087386
-0.09151389784999577
-0.09520530149861815
-0.09785149337483826
-0.09967300325199631
-0.10081314043691446
-0.10146383312963939
-0.10170958672120216
-0.10162686877438261
-0.10124782765055111
-0.10059294204194774
-0.09964845504938119
-0.09834350190110044
-0.09661312131879547
-0.0943445187186066
-0.09142861870458555
-0.08763597043768905
-0.08280334278890725
-0.07669661379637643
-0.06910496134825264
-0.05956144851390823
-0.0478229875400561
-0.033672460396417254
-0.01648539145237724
0.0038884095097804685
0.027721518384715763
0.055297474114431325
0.0867682798998287
0.12202034388196643
0.1605745305573969
0.20170954643104086
0.2440664345033219
0.2860015838006634
0.3248965446907755
0.3577128693745113
0.3797278569292056
0.3856007159067996
0.3710283160670564
0.330407413102285
0.2613683054362387
0.16535185060559396
0.06630766750155125
0.30728902821796744
0.33717061452092595
-0.11573714656013274
-0.130799439480131
-0.10570535512391613
-0.11372780229948787
-0.1245635302413792
0.7269997387825573
0.8347617254271018
0.046007270506538474
0.4679910115474686
0.41050734696060803
0.16692146289100074
0.0031366688239047816
-0.07378379845270754
-0.10001567391903445
-0.10518127231499247
-0.10385296486822224
-0.10231052803076703
-0.09846832164148765
-0.08473012843988502
-0.04101671792383555
0.30863173663668
0.10164156815105288
0.05153787112986386
0.2175443433717908
0.44228040793501644
0.5270414712543849
-0.10168036655234587
-0.09715932322660015
-0.10233728464411714
-0.08377000668667439
-0.09657556248298453
-0.07315791420022082
-0.011102327663137889
-0.04907507932942291
0.11625277765604994
0.3202582298912211
0.41159595865393417
0.4921555331208132
0.1334067718158203
2.2562437466215504
2.4658842148377054
0.3162010447825522
0.007045941752141425
-0.31995283261098234
0.43353010341347564
-0.10230954769970249
-0.0998188402647204
-0.1003537180472759
-0.09159326976904332
-0.08708221543359836
-0.06878611534530397
-0.04648330343857918
0.046411186946960066
0.21338885459220475
0.041510521744975847
-0.14299730792783974
-0.11677288635863928
-0.123761195109857
-0.10620445994408902
0.8926160215205138
0.5831067609988398
-0.031782754694611656
0.23793720672139623
0.14188665745955828
0.4592261061065706
0.22203848098082257
0.06507796699728043
-0.09857956794859604
0.3884750777202469
-0.030156942438429098
-0.41751390884502504
-0.15089691667409963
0.032833074894915444
0.27463727441335234
-0.10461649295414978
-0.10806434632249234
-0.10490610193156735
-0.11263371909575562
-0.10508948353649987
-0.1129117505228737
-0.08229300621660274
-0.07287632478518628
0.8282370826629009
0.6979119990900482
-0.20066822435964268
-0.0979711670308958
-0.14243482955312803
-0.20985491953469163
-0.11468425977837776
0.3229199860491279
0.4004661603598835
0.5455847679290878
0.518208742767725
-0.30079309657106174
0.3759623336509295
0.4672919894446664
-0.10188333045339168
-0.10167020731103094
-0.10038502890796432
-0.0978882385467554
-0.10072764797374137
-0.09731253721591404
-0.08622901541256439
-0.09351735548255055
-0.09022641066298902
-0.0775527557513936
-0.07432039420404206
-0.05635099744409703
-0.02429735123512048
-0.0564879194770445
0.023012124120603966
0.0869455979782777
0.26873183033779646
0.17053225418634618
-0.6002055555256581
-0.5404004018209276
2.332489161030565
1.9952133237032923
-0.014257358255227523
-0.2352658413395931
-0.12196078555212844
0.16889580909628107
-1.0064285288165085
0.26576571577976243
0.18013718698294123
0.039050865948654416
0.10135564260066787
0.3473621975745019
-0.008684319444191475
0.39328239635323664
0.21971500681166306
0.36633678585637686
0.5347506766808676
0.7167242441775172
0.42311179378163094
0.4970539901841583
0.3221079645654241
0.21875178329698794
0.12751921381714867
0.05384393201624449
-0.0016322894206646115
-0.04151191155064485
-0.06558852477115058
-0.04119317859995732
-0.08058918605330691
-0.06759113277234972
-0.08430334731522056
-0.09009150162918403
-0.09402489191073267
-0.09918920923254895
-0.09583184572164942
-0.09922064608284939
-0.1013949096551044
-0.10184361020515152
-0.10108341549804656
0.013839356920074212
0.1397075657324439
0.30797848305190945
-0.26982869697736916
0.09687450540465166
0.6181302600909339
0.5377275131524893
2.8036412452533
1.9883210013783272
0.38716987918865814
0.42802012396643874
0.47752159428385466
0.004780602870162976
0.3069585322808031
-0.024649601427366212
-0.28242466287452606
0.5891893005314829
0.5124021151991306
0.07569952319076018
-0.1032224603563383
-0.10472312727565816
-0.10084273201007336
-0.10382419512380732
-0.09306743180288347
-0.0898841711547305
-0.07166214313221135
-0.04160908275382583
0.3094423826452499
0.0339551240385447
1.2650001535191253
1.4602339633011803
0.265593952156506
0.09019050064835628
0.18038623593961212
0.41485591046486703
-0.10536896235447737
-0.10433930005249997
-0.11013665881849424
-0.10448760294827943
-0.11189194719586736
-0.09790551172982609
-0.09883423321628963
-0.028031205036258187
0.14415472576217364
5.3209994235239675
5.209113620693734
-0.012093327464003935
2.094004461101809
0.4859303617038329
-0.10265782145731218
-0.10312143453262458
-0.1013535615403567
0.4010911438352774
-0.09984342184098208
-0.10269515363957922
-0.10099102635381313
-0.09589104254706189
-0.09127527610625005
-0.09484443757977562
-0.08667060521092512
-0.07952305266772572
-0.06724861035058362
-0.06522696170436174
-0.042173116022290943
0.011130154359655631
0.48724962629616125
0.06049584216775617
0.16281780513829652
0.24343739591994054
-0.06948058667620367
0.22266343541758177