# vtk DataFile Version 1.0
2D Simulation C++
ASCII
DATASET UNSTRUCTURED_GRID
FIELD FieldData 1
NODES 1 2 int
348 601

POINTS 348 double
0.0 0.5 0.0
0.0 1.0 0.0
2.0 1.0 0.0
2.0 0.5 0.0
0.0 0.528801679611206 0.0
0.0 0.564507782459259 0.0
0.0 0.6110168099403381 0.0
0.0 0.6721802353858948 0.0
0.0 0.7528436183929443 0.0
0.0 0.8593378663063049 0.0
0.16666941344738007 1.0 0.0
0.3333356976509094 1.0 0.0
0.5000020265579224 1.0 0.0
0.6666678786277771 1.0 0.0
0.8333337306976318 1.0 0.0
1.0 1.0 0.0
1.1666662693023682 1.0 0.0
1.3333321809768677 1.0 0.0
1.4999979734420776 1.0 0.0
1.6666642427444458 1.0 0.0
1.8333306312561035 1.0 0.0
2.0 0.8593378663063049 0.0
2.0 0.7528436183929443 0.0
2.0 0.6721802353858948 0.0
2.0 0.6110168099403381 0.0
2.0 0.564507782459259 0.0
2.0 0.528801679611206 0.0
0.029850948601961136 0.5 0.0
0.05970168858766556 0.5 0.0
0.08955242484807968 0.5 0.0
0.1194031685590744 0.5 0.0
0.14925390481948853 0.5 0.0
0.17910465598106384 0.5 0.0
0.20895539224147797 0.5 0.0
0.2388061285018921 0.5 0.0
0.2686568796634674 0.5 0.0
0.29850760102272034 0.5 0.0
0.32835835218429565 0.5 0.0
0.35820910334587097 0.5 0.0
0.3880598247051239 0.5 0.0
0.4179105758666992 0.5 0.0
0.44776129722595215 0.5 0.0
0.47761204838752747 0.5 0.0
0.5074627995491028 0.5 0.0
0.5373135209083557 0.5 0.0
0.5671642422676086 0.5 0.0
0.5970150232315063 0.5 0.0
0.6268657445907593 0.5 0.0
0.6567164659500122 0.5 0.0
0.6865672469139099 0.5 0.0
0.7164179682731628 0.5 0.0
0.7462686896324158 0.5 0.0
0.7761194705963135 0.5 0.0
0.8059701919555664 0.5 0.0
0.8358209133148193 0.5 0.0
0.865671694278717 0.5 0.0
0.89552241563797 0.5 0.0
0.9253731369972229 0.5 0.0
0.9552239179611206 0.5 0.0
0.9850746393203735 0.5 0.0
1.0149253606796265 0.5 0.0
1.0447760820388794 0.5 0.0
1.0746268033981323 0.5 0.0
1.1044776439666748 0.5 0.0
1.1343283653259277 0.5 0.0
1.1641790866851807 0.5 0.0
1.1940298080444336 0.5 0.0
1.2238805294036865 0.5 0.0
1.2537312507629395 0.5 0.0
1.2835819721221924 0.5 0.0
1.3134328126907349 0.5 0.0
1.3432835340499878 0.5 0.0
1.3731342554092407 0.5 0.0
1.4029849767684937 0.5 0.0
1.4328356981277466 0.5 0.0
1.4626864194869995 0.5 0.0
1.492537260055542 0.5 0.0
1.522387981414795 0.5 0.0
1.5522387027740479 0.5 0.0
1.5820894241333008 0.5 0.0
1.6119401454925537 0.5 0.0
1.6417908668518066 0.5 0.0
1.6716417074203491 0.5 0.0
1.701492428779602 0.5 0.0
1.731343150138855 0.5 0.0
1.761193871498108 0.5 0.0
1.7910445928573608 0.5 0.0
1.8208953142166138 0.5 0.0
1.8507460355758667 0.5 0.0
1.8805968761444092 0.5 0.0
1.910447597503662 0.5 0.0
1.940298318862915 0.5 0.0
1.970149040222168 0.5 0.0
1.7358819246292114 0.7499510645866394 0.0
0.2656642198562622 0.7486277222633362 0.0
0.49981194734573364 0.737183690071106 0.0
0.74151611328125 0.7359843254089355 0.0
0.9774143695831299 0.7371892929077148 0.0
1.201690912246704 0.7367381453514099 0.0
1.447761058807373 0.7383390665054321 0.0
1.8591958284378052 0.6421071290969849 0.0
0.14080412685871124 0.6421071290969849 0.0
1.588537573814392 0.6783608794212341 0.0
0.2553686201572418 0.6221352219581604 0.0
1.7466964721679688 0.6278358101844788 0.0
0.38199201226234436 0.6273008584976196 0.0
0.5013589859008789 0.6272794008255005 0.0
0.6207823157310486 0.6272526383399963 0.0
0.7401852607727051 0.627252459526062 0.0
0.8595882654190063 0.6272523999214172 0.0
0.9701492786407471 0.6212864518165588 0.0
1.0807102918624878 0.6272523999214172 0.0
1.2001131772994995 0.6272523999214172 0.0
1.3195161819458008 0.6272523999214172 0.0
1.4488563537597656 0.6310953497886658 0.0
1.9247323274612427 0.5706554055213928 0.0
0.07526770234107971 0.5706554055213928 0.0
1.5377081632614136 0.5910930037498474 0.0
1.6566967964172363 0.5934624075889587 0.0
1.8074009418487549 0.5708622932434082 0.0
0.1940300166606903 0.5737577676773071 0.0
1.0286364555358887 0.5665481686592102 0.0
1.14803946018219 0.5665481686592102 0.0
0.9116620421409607 0.5665481686592102 0.0
1.2674424648284912 0.5665481686592102 0.0
0.7922590970993042 0.5665481686592102 0.0
0.6728560328483582 0.5665482878684998 0.0
0.5534531474113464 0.5665481686592102 0.0
1.3892061710357666 0.5727682709693909 0.0
0.43402159214019775 0.5665869116783142 0.0
0.3146642744541168 0.5667200088500977 0.0
1.8656742572784424 0.5607567429542542 0.0
0.1343258023262024 0.5607567429542542 0.0
1.5970147848129272 0.5642029047012329 0.0
1.8783670663833618 0.7786769866943359 0.0
0.12163297086954117 0.7786769866943359 0.0
1.7164177894592285 0.562579333782196 0.0
1.4776118993759155 0.5620538592338562 0.0
1.5857784748077393 0.867691159248352 0.0
0.25373148918151855 0.5588531494140625 0.0
0.9701492786407471 0.5582930445671082 0.0
1.0895521640777588 0.5582930445671082 0.0
0.8507462739944458 0.5582930445671082 0.0
1.20895516872406 0.5582930445671082 0.0
0.7313433289527893 0.5582930445671082 0.0
1.3283581733703613 0.5582930445671082 0.0
0.6119403839111328 0.5582930445671082 0.0
0.49253740906715393 0.5582930445671082 0.0
0.37313446402549744 0.5582956075668335 0.0
0.36864349246025085 0.7376502752304077 0.0
0.602456271648407 0.7355343103408813 0.0
0.8441241383552551 0.7366551756858826 0.0
1.3355978727340698 0.7366551160812378 0.0
1.0895521640777588 0.7378703355789185 0.0
0.07051979005336761 0.6486480832099915 0.0
1.9294801950454712 0.6486480832099915 0.0
1.5086064338684082 0.6743985414505005 0.0
1.6785967350006104 0.6649783849716187 0.0
1.9543375968933105 0.5452249050140381 0.0
0.04566239193081856 0.5452249050140381 0.0
1.6567095518112183 0.5496091842651367 0.0
1.53738272190094 0.5491842031478882 0.0
0.91306072473526 0.8965699672698975 0.0
1.7782752513885498 0.5446287989616394 0.0
1.4163299798965454 0.5447981357574463 0.0
0.4287482798099518 0.8945969939231873 0.0
1.2610714435577393 0.8950135707855225 0.0
0.4313095211982727 0.6832783222198486 0.0
0.31561949849128723 0.6858259439468384 0.0
1.029850721359253 0.6781684160232544 0.0
0.9082015752792358 0.6848641633987427 0.0
1.1492537260055542 0.6781684160232544 0.0
0.7886138558387756 0.678956151008606 0.0
1.2709345817565918 0.684736430644989 0.0
0.6685023903846741 0.6868807673454285 0.0
1.4007169008255005 0.6702371835708618 0.0
0.5483440160751343 0.6792802214622498 0.0
0.19808045029640198 0.6887137293815613 0.0
1.797759771347046 0.6853783130645752 0.0
0.6811949610710144 0.8757594227790833 0.0
1.0189321041107178 0.8474968671798706 0.0
0.7922950983047485 0.8446238040924072 0.0
1.3765455484390259 0.8590760827064514 0.0
1.1571698188781738 0.8478953838348389 0.0
1.8954496383666992 0.5359624624252319 0.0
1.8360060453414917 0.5359931588172913 0.0
0.10455036163330078 0.5359624624252319 0.0
0.16417928040027618 0.5353734493255615 0.0
0.5530290007591248 0.8422092199325562 0.0
0.2832632064819336 0.5367912650108337 0.0
0.22469767928123474 0.5394234657287598 0.0
0.9405550956726074 0.5357381105422974 0.0
0.9997434020042419 0.5357381105422974 0.0
1.0600273609161377 0.5365630984306335 0.0
1.1191463470458984 0.5357381105422974 0.0
0.8802711367607117 0.5365630984306335 0.0
0.8211521506309509 0.5357381105422974 0.0
1.2385493516921997 0.5357381105422974 0.0
1.179430365562439 0.5365630984306335 0.0
0.7608681321144104 0.5365630984306335 0.0
0.7017492055892944 0.5357381105422974 0.0
1.2988333702087402 0.5365630984306335 0.0
1.357560396194458 0.5390686392784119 0.0
0.5823462605476379 0.5357381105422974 0.0
0.6414651870727539 0.5365630984306335 0.0
0.5220622420310974 0.5365630984306335 0.0
0.4629422128200531 0.535739541053772 0.0
0.3435409665107727 0.5357455015182495 0.0
0.4026572108268738 0.5365669131278992 0.0
0.21006634831428528 0.8590372204780579 0.0
1.7943172454833984 0.8627070188522339 0.0
0.06134982034564018 0.7191494703292847 0.0
1.938650131225586 0.7191494703292847 0.0
1.634666085243225 0.7584379315376282 0.0
0.3355695903301239 0.8387951850891113 0.0
1.537941336631775 0.7633647918701172 0.0
1.9670078754425049 0.574067234992981 0.0
0.032992132008075714 0.574067234992981 0.0
1.6862140893936157 0.5314788222312927 0.0
1.6272135972976685 0.5317342281341553 0.0
1.5077245235443115 0.5309156775474548 0.0
1.5668202638626099 0.5316618084907532 0.0
1.7466963529586792 0.5298213958740234 0.0
1.4473658800125122 0.5297333002090454 0.0
1.804386019706726 0.5275400876998901 0.0
1.9283779859542847 0.5282225012779236 0.0
1.8656879663467407 0.5267112255096436 0.0
0.13432854413986206 0.5271331071853638 0.0
0.07162196189165115 0.5282225012779236 0.0
0.25373148918151855 0.527070939540863 0.0
0.19419340789318085 0.5297109484672546 0.0
0.31349387764930725 0.5272363424301147 0.0
0.37313446402549744 0.5270199179649353 0.0
0.4329495429992676 0.5274069309234619 0.0
0.49253740906715393 0.5270196795463562 0.0
0.5523557066917419 0.5274024605751038 0.0
1.3898069858551025 0.5277745127677917 0.0
1.3283581733703613 0.5270196795463562 0.0
0.6119403839111328 0.5270196795463562 0.0
1.2685397863388062 0.5274024605751038 0.0
0.6717586517333984 0.5274024605751038 0.0
0.7313433289527893 0.5270196795463562 0.0
1.20895516872406 0.5270196795463562 0.0
0.7911616563796997 0.5274024605751038 0.0
0.8507462739944458 0.5270196795463562 0.0
1.1491369009017944 0.5274024605751038 0.0
1.0895521640777588 0.5270196795463562 0.0
0.9105646014213562 0.5274024605751038 0.0
0.9701492786407471 0.5270196795463562 0.0
1.0297338962554932 0.5274024605751038 0.0
1.4776118993759155 0.5259945392608643 0.0
1.597015619277954 0.5255197882652283 0.0
1.7164177894592285 0.525999903678894 0.0
1.6834615468978882 0.8477573990821838 0.0
1.5822722911834717 0.6086509227752686 0.0
0.20459823310375214 0.6270732283592224 0.0
1.8037469387054443 0.6209055185317993 0.0
0.09990309923887253 0.8589919805526733 0.0
1.9000968933105469 0.8589919805526733 0.0
1.75603187084198 0.5789161324501038 0.0
0.10896337777376175 0.5982794761657715 0.0
1.8910366296768188 0.5982794761657715 0.0
1.4950518608093262 0.605266273021698 0.0
1.7049394845962524 0.6007562279701233 0.0
1.4387125968933105 0.5775743722915649 0.0
1.489302158355713 0.851039469242096 0.0
0.15732239186763763 0.5961292386054993 0.0
1.8436260223388672 0.5944437384605408 0.0
0.4399496018886566 0.6259797215461731 0.0
1.022565245628357 0.6257523894309998 0.0
[...]
POINT_DATA 348
SCALARS Psi double
LOOKUP_TABLE default
1.087898492271971
1.0
1.0
1.0766685006049044
1.0877880238799178
1.0875451276809185
1.0891468246381957
1.0938728196301624
1.1033510862517364
1.141821753995226
1.0
1.0
1.0
1.0
1.0
1.0
1.0
1.0
1.0
1.0
1.0
1.1342685535617694
1.094275140653009
1.0844750590135614
1.0798819392190226
1.077714583972256
1.07685908532749
1.0879813069907145
1.0867118923082797
1.084822324531978
1.0824208214807585
1.0794798343280796
1.0760237743946985
1.0721219033333798
1.0678673270405656
1.0633834979233723
1.0587585178937169
1.054092108187049
1.0494630978999506
1.0449565784920745
1.0406244548748143
1.0364944917563965
1.032599691704394
1.0289673624335742
1.0256110234904845
1.0225184734259398
1.0196945910054307
1.0171382899654529
1.0148449662207009
1.012790693188265
1.0109688922037565
1.0093692885016512
1.0079827450968701
1.0067888798394886
1.0057805021631447
1.0049495312152803
1.004289132861895
1.003786795880498
1.0034384311987272
1.0032413316138322
1.0031935760188053
1.0032915791304982
1.003534760774633
1.003928702127194
1.004476342784513
1.0051809050247762
1.0060463558599493
1.0070860696779054
1.0083063856157928
1.0097145792346103
1.0113163655796913
1.0131346535575467
1.0151741542978368
1.0174310616501825
1.0199347655385942
1.0226765754017222
1.0256555811416836
1.028872287911892
1.0323241368405023
1.0359904534484587
1.0398395978935682
1.0438339001666967
1.0479255887567471
1.0520543522070673
1.0561439540616433
1.060107300857905
1.0638382142802847
1.0672402507801328
1.070204794761712
1.0726292271707905
1.0744756808482203
1.0757491596530577
1.0764613760131474
1.04678673331935
1.051885515930912
1.0201199966773793
1.0058087141074523
1.001673162959796
1.0036440150059094
1.0139160128745963
1.0733682860308138
1.0821127655601726
1.031107493810945
1.063534341304199
1.0566896430906774
1.0425530503895188
1.0268242189220913
1.0156244462877855
1.008449878090772
1.004363468231353
1.0028459012192597
1.003042240836808
1.0054011963424065
1.0102989406081229
1.0190457780944455
1.0762816281763814
1.0856765633907666
1.0292514085043227
1.0445295613729475
1.0659084289666063
1.0740342181251816
1.003069185998041
1.004581275998215
1.0038190558786557
1.0086118180984196
1.0070316817700666
1.0132385616867168
1.0232042632298681
1.0157541794276315
1.0374860818326441
1.0554784600051492
1.0719808642548578
1.0811616619438995
1.037207021270134
1.078243893886476
1.0863580291098138
1.0536728627320306
1.0235735505005437
1.0130768797324619
1.0652546439440307
1.0031971800283581
1.0035800126474055
1.0051658661821372
1.0063428274325934
1.0098479079931422
1.0118733764070336
1.0179115361278814
1.0300948192048134
1.0464795409250416
1.0356947979696742
1.0123546714830347
1.0031388137118433
1.0079927978597445
1.0019375892001707
1.0902638712846642
1.080784344030476
1.0226368515808664
1.0445798319578066
1.0766486842568725
1.086929792121951
1.0454994093183896
1.030180473515434
1.0004324945482017
1.0622234399775756
1.0182593999250567
1.0105238723760892
1.0014802047819062
1.0321300971659864
1.0494026798736003
1.002286788408093
1.002832676551148
1.0035488499710141
1.005618570387386
1.0068375979717534
1.0105845715091042
1.0140170377604663
1.0195846864082974
1.0716959371437467
1.063540231758461
1.003369107234242
1.0005515594246448
1.0019091819830965
1.0044738164018239
1.001177107531421
1.073882711988022
1.068932705184403
1.0837058735580238
1.0778578035963573
1.0080518653572788
1.0609557035169792
1.069822497159079
1.0035450397031196
1.003157028578781
1.0033515643654611
1.0041284745998136
1.0045481300923405
1.0061845327497116
1.0075850696426951
1.0055371379682243
1.008572250634042
1.0117221815998951
1.0104034215440567
1.0139271150115512
1.020873267605803
1.01583352214268
1.0270743847407482
1.0342522421228275
1.051505477187295
1.0425621403733083
1.0395567119598907
1.0362112406207669
1.098043604119648
1.0884747857822286
1.0302226562788412
1.0266177597600972
1.0193764813979107
1.0777982106688884
1.0869961007758557
1.0498145436636466
1.0417081625379438
1.0271154105438676
1.0339263394437426
1.0581499885149177
1.0211278764175924
1.0654242207401956
1.075478604358843
1.0715896904619926
1.0810291891655364
1.0859076325087214
1.0655604562184091
1.0740718139019454
1.0562843392828365
1.0470324244027156
1.0383627236214077
1.0306045498032388
1.023898169484327
1.016320578777269
1.0121236384963073
1.0182793546987277
1.0089276307452293
1.0137007835862903
1.0100776922491868
1.0065005078331932
1.0073104043970758
1.0053050973964812
1.0047734308912661
1.0036844333117678
1.0039875385677215
1.0032950112917325
1.0031998203378998
1.024037436997046
1.0377827728885447
1.0540277125808777
1.0247321387702333
1.0340237854983458
1.07209782014208
1.0654175114733717
1.0766798929297343
1.0694555763435893
1.0590427465394276
1.0841870229295503
1.0751056280117743
1.0242341335518235
1.0512398676379586
1.0196471265129874
1.0091320107372004
1.0790605517480922
1.0704032734992566
1.0344440622781332
1.0027018847932092
1.0033117193088887
1.003983443777178
1.0061443528073053
1.0075904485878293
1.011738082102413
1.0131968557388986
1.020894897008609
1.0530712952389252
1.0269045214789103
1.0769456353035336
1.0853522129709159
1.0490327686829897
1.0329781465037746
1.0415769678269151
1.053151099249141
1.0023831237666725
1.002669412598944
1.0039419840681787
1.0050220620415191
1.0079148468010437
1.0097441804784304
1.0144742489085612
1.0255108840363718
1.0411379064568673
1.1079720420647579
1.0992860185159075
1.0766662709023225
1.0879553882481259
1.0607630917090982
1.0029736100812408
1.003251697940563
1.0031707829113432
1.0612209668315207
1.0037528272101826
1.0043771419120835
1.0056004631891842
1.0053643921369748
1.006900973143344
1.0083447788660351
1.0107081813715109
1.0101584366038443
1.0127991517611143
1.0154621453377244
1.0192795098744731
1.0265466126373572
1.0680749271101724
1.032071715973176
1.0420101338413157
1.0488855256052423
1.0174363328802454
1.0457873797685975
1.0304818972681327
1.038647215043971
1.0014570678243666
1.0217583356596291
1.0389659646660399
1.0837778126291255
1.07440469662234
1.0002569228467604
1.0282062855835545
1.0692429011616453
1.0781093713747647
1.0039402380459397
1.0875215268048
1.0771331375942435
1.0872136579714382
1.0783251426473015
1.0690638894395754
1.0624278623174255
1.0620060579170847
1.0185976058883852
1.0010538092192227
1.0163453876144979
1.0065917250369187
1.0761908675754022
1.0872105070543876
1.052818724005059
1.0469710961366048

SCALARS Omega double
LOOKUP_TABLE default
4.100276107303173
-10.327731320549123
-14.268650613254836
0.1321784157540632
4.492515322539078
-2.6837951265306375
-4.473558098069792
3.542291944608012
1.0314781896491374
20.842645488015947
-8.188675760536533
-0.40947337405800055
-0.8985290046028908
-0.23421624851420975
-0.11369374035888154
-0.030615035820002835
-0.11117156124717557
-0.1864372102346707
-0.656990856848551
-0.6110349056081574
-6.115746103993903
17.943670104953632
3.5124637378659664
-1.0379081036884954
0.14534850512454647
0.03351219640300363
-0.3220309630749035
2.1113614024884657
1.0918364935739293
0.7143019365887224
0.5849516756375105
0.5327238475305672
0.5070780175929192
0.47819029085432135
0.44153709332407626
0.3974121086181559
0.34773314460915017
0.29624699405740895
0.24497966452173847
0.19618403067513848
0.15081005768689734
0.10952169746417902
0.07261484998863102
0.04033499266801307
0.01257140344943854
-0.011153493083259879
-0.031079809237440914
-0.047522432406111766
-0.0608090988256815
-0.07153889465933491
-0.08001100160236124
-0.08658044482044847
-0.09151113535187949
-0.0952024526205486
-0.09784857266818653
-0.09967002325660153
-0.10081011465727481
-0.10146077756972402
-0.10170651727324834
-0.10162379880985148
-0.10124490336918539
-0.10058987933776223
-0.09964530526345622
-0.09834009920687985
-0.09660941386736736
-0.09433993683498933
-0.09142356268634043
-0.08762963109542006
-0.08279594288750328
-0.07668607297492624
-0.06909302153340396
-0.05954519505124422
-0.047800909757694805
-0.03366311582673731
-0.016471026614695686
0.003912091763183364
0.027744542319614825
0.0553104519446492
0.08677813957496193
0.12203799132126159
0.16057710331705619
0.2016904690468155
0.2440142690940963
0.2859357597419843
0.3247875325765136
0.3576018804879909
0.37954759707415714
0.38524838806727985
0.3706559531312535
0.33000267710132114
0.2610343507534395
0.16510940553176026
0.06635093408655501
0.31510643862983373
0.33936250969919846
-0.11646396807815264
-0.13091131512364698
-0.10570479262789217
-0.11366486236792023
-0.12385485986575621
0.7178329290450277
0.8448248762135998
0.04691967073268907
0.4698817438154004
0.40812504905660296
0.16695016952283598
0.0028986105227121707
-0.07395057271345332
-0.10007748901292832
-0.10519413465948732
-0.10385313771625694
-0.10230560374380475
-0.09843435791796759
-0.08460493633340994
-0.04068450905818731
0.30651000715176024
0.09488963150515514
0.05186355258326895
0.21730169511031472
0.43991775618376666
0.5280590973348305
-0.10167791495771304
-0.0971484345561688
-0.10233783446953935
-0.08372537700674745
-0.09658899486177162
-0.07320225205814385
-0.011170289773673354
-0.04892960611800794
0.11627954337625501
0.3207477482515339
0.40938470226983453
0.49085182024876706
0.13352202757461604
2.2490598145692235
2.5274006236363538
0.31560164595530266
0.007245584198848689
-0.3187840733406225
0.43428971073968226
-0.1023080382904937
-0.09981414533879092
-0.10035883503875084
-0.09157541996388241
-0.08711014241782071
-0.06872857881599176
-0.04655261883277949
0.04633541660191209
0.21351095452712185
0.040641967566041506
-0.14344281951470747
-0.1168029369674352
-0.12342000957713736
-0.10619288362010097
0.967626961016181
0.5747829229111331
-0.03102827875281002
0.2379948412484163
0.14049970194732767
0.4503870854126869
0.2219101363749707
0.06523745466597082
-0.09858095053742857
0.3875236650967128
-0.03006770941908005
-0.41888493329454835
-0.15081530781205738
0.032555129639910925
0.27537499566589596
-0.10461457852180177
-0.10807368643102407
-0.10488005185052157
-0.1126875832270066
-0.1049710391168605
-0.11310491142967898
-0.08190560741062386
-0.07324180993373067
0.8361153382910425
0.692307214741748
-0.20088476210875217
-0.09796387193635243
-0.14249625099203356
-0.20891434553415153
-0.11464550818400708
0.32160375561496735
0.39908301605508095
0.5432659404807018
0.5181515478240889
-0.30164092901762096
0.3762592416896053
0.46768798635431436
-0.101881072397663
-0.10166769945045445
-0.10038126413917516
-0.0978815575921144
-0.10072636139973197
-0.09731343926521642
-0.08620373831068531
-0.0935026208578904
-0.09023010971787436
-0.07756068936920081
-0.07426755426056451
-0.05627197114266938
-0.024306380622366106
-0.05649641237984117
0.023021678595497846
0.08697888908263293
0.26890686707443057
0.17063017053890386
-0.6191914957363339
-0.5147477521488285
2.32944502242468
1.977775381624653
-0.011509973832674804
-0.2381700246913003
-0.12062860554457068
0.16690691314325687
-1.0217325956419037
0.26552697933980907
0.18017369475819647
0.03920751486061394
0.10148460740236678
0.34662568045011605
-0.008565035044731016
0.39209203767268763
0.21860666388544606
0.3652354842380786
0.5338229014618727
0.7124937248772195
0.42341572987536363
0.4972714779668119
0.32227213528617543
0.2188043757206133
0.12752330371694334
0.05381379425813266
-0.0016588976436933054
-0.041425760740081155
-0.06553815890719404
-0.041220365708449946
-0.08055898605536585
-0.06760665963767687
-0.08431329859765219
-0.09007559982292958
-0.09402827516658897
-0.09918949924719236
-0.09582327901148409
-0.09921594246295432
-0.1013931029693416
-0.10184104668870725
-0.10108031856799862
0.013963754805251064
0.1398004511339492
0.3076031416061835
-0.263891989281005
0.09725994008700423
0.6218180235341753
0.5337801005663979
2.903994998605055
2.1556476245377847
0.3856464499214568
0.43159573645919375
0.4734075725692023
0.005162887354571774
0.30623754801955644
-0.02440888406390687
-0.28101164500144354
0.5921226674068434
0.508589770928765
0.07552710476518695
-0.1032206792327352
-0.1047266449638294
-0.10082781801168184
-0.10385506186497434
-0.09299471171159399
-0.08998618926707952
-0.0714723816888795
-0.041827513895387275
0.31016180268933496
0.034137236621800245
1.2523254093135308
1.478574581756854
0.26516273794444917
0.0903703755604442
0.18033175949380292
0.41361747077041666
-0.10537029945273736
-0.10433323595254104
-0.1101627319068175
-0.10444416612571239
-0.11199980904141772
-0.09772642497101032
-0.09915160151247268
-0.028489382816564632
0.14423133865933072
5.598342137934586
5.403330749429566
-0.012855545658470928
2.097568743032728
0.48885285800353884
-0.10265658986279629
-0.10312116133816725
-0.10134933065447085
0.4019971714073365
-0.09983550150487663
-0.10270036133895105
-0.10100311932514289
-0.09586812016611267
-0.0912402409123126
-0.09487584592422504
-0.08672066195766363
-0.0794387469059516
-0.06713510431126643
-0.06531639975085046
-0.04228446162872447
0.011000785933131649
0.4886784245290503
0.06039606300140953
0.16287280739528007
0.24370959317710986
-0.06902047503769493
0.2226258914646943
0.06938458102875479
0.14914185410751557
-0.10985057802785704
-0.1682997311528712
0.15224986260880682
0.38217069700977085
0.3751900948172763
-0.08900362484957017
0.032411658152825866
0.44000567143648833
0.5321895297834542
-0.1340933844825462
0.46689733006945483
0.011219956375841946
-0.5101376860194644
0.34085176287441005
1.0203182714732166
0.9271596147908334
0.3733243356635653
-0.026220725870423112
-0.17257112673845904
-0.052965824220584816
-0.1661731950991245
0.11856100495642463
1.248211527341823
0.572932474281571
-1.2167728901427064

SCALARS Vx_analytic double
LOOKUP_TABLE default
4.100276107303173
-10.327731320549123
-14.268650613254836
0.13210622523442642
4.492515322539078
-2.6837951265306375
-4.473558098069792
3.542291944608012
1.0314781896491374
20.842645488015947
-8.188675760536533
-0.40947337405800055
-0.8985290046028908
-0.23421624851420975
-0.11369374035888154
-0.030615035820002835
-0.11117156124717557
-0.1864372102346707
-0.6569908568485507
-0.6110349056081574
-6.115746103993903
17.943670104953632
3.5132647406434474
-1.0157705243208959
0.1475557582993423
0.034519639308457306
-0.32007576335809135
2.1113614024884657
1.0918364935739293
0.7143019365887224
0.5849516756375105
0.5327238475305672
0.5070780175929192
0.47819029085432135
0.44153709332407626
0.3974121086181559
0.34773314460915017
0.29624699405740895
0.24497966452173847
0.19618403067513848
0.15081005768689734
0.10952169746417902
0.07261484998863102
0.04033499266801307
0.01257140344943854
-0.011153493083259879
-0.031079809237440914
-0.047522432406111766
-0.0608090988256815
-0.07153889465933491
-0.08001100160236124
-0.08658044482044847
-0.09151113535187949
-0.0952024526205486
-0.09784857266818653
-0.09967002325660153
-0.10081011465727481
-0.10146077756972402
-0.10170651727324834
-0.10162379880985148
-0.10124477010158232
-0.100589911989673
-0.09964546776070808
-0.09834056970482295
-0.09661025540885745
-0.09434173202681762
-0.0914259233685054
-0.0876333754167141
-0.08280085524553157
-0.07669424224053221
-0.06910271302831508
-0.05955932716003171
-0.04782099496917084
-0.03367060305670075
-0.016483667098051838
0.003890001350772188
0.02772297816259824
0.055298804696050634
0.08676948529151786
0.12202142946949282
0.16057550174846677
0.20171040972422366
0.24406719716475614
0.28600225401871243
0.32489713067163245
0.35771337930167746
0.3797282986591852
0.38560109847859114
0.37102864669006386
0.3304076988767576
0.2613685528487361
0.16535206279325232
0.06630781554267362
0.307288799574948
0.3371703500209015
-0.11573697951360493
-0.13079889267423675
-0.10570470498789693
-0.1137273164957733
-0.12456342412901716
0.7269998582969366
0.8347615465810371
0.04600763521771188
0.4679911314181794
0.41050764657119343
0.16692203008340264
0.0031377379342757868
-0.07378223903266622
-0.1000137174451236
-0.10517906025400173
-0.10385061601263593
-0.10230832559834156
-0.09846636561202379
-0.08472853720780003
-0.04101560844159998
0.3086319309163112
0.10164127622221593
0.05153891015474331
0.21754497937911552
0.4422807501591261
0.5270414789999841
-0.10167754436325813
-0.09715670706145826
-0.10233446282464088
-0.08376776604765404
-0.09657295649449169
-0.07315571970692579
-0.011100681604747576
-0.04907335368379339
0.11625381747400616
0.3202586998132869
0.41159622773259513
0.4921553819648947
0.13340769997166418
2.2562434931010062
2.4658839020269925
0.31620160127096697
0.0070473449961357465
-0.31995376866146513
0.4335303320467691
-0.10230665944559231
-0.09981605844206168
-0.10035093993175007
-0.09159079033083861
-0.08707976299320272
-0.06878407597983997
-0.04648134665526803
0.04641254758241016
0.21338960890555977
0.041510447057379614
-0.14299695300293974
-0.11677226200094958
-0.12376091591830234
-0.10620387829259638
0.8926157800560185
0.5831068381274509
-0.0317821695656839
0.23793747308431795
0.14188684350967812
0.4592257737594546
0.22203924030901376
0.0650791645742655
-0.09858145142548251
0.38847551640319544
-0.030155220441625847
-0.4175148531602771
-0.15089856801703147
0.03283350791694544
0.27463735393361244
-0.10461490862770653
-0.10806284603199218
-0.1049046655503793
-0.11263227564129331
-0.10508838847670503
-0.11291065751160316
-0.0822920891028321
-0.07287549353728226
0.8282369202332238
0.697912026081348
-0.20066958110709276
-0.09797239333267665
-0.14243594451752292
-0.20985612636694287
-0.11468546232844694
0.32292023996062
0.40046649947898333
0.5455845536085643
0.5182086845601892
-0.30079395007668874
0.37596270909120383
0.46729212914970203
-0.10188032645343886
-0.1016672032352279
-0.10038208272398708
-0.0978853971126336
-0.1007247058619196
-0.09730970697519457
-0.08622652751426488
-0.09351467474138117
-0.09022375419509777
-0.07755031266199437
-0.07431813931473916
-0.05634899646901682
-0.024295455297882497
-0.05648573888288225
0.0230137056369806
0.08694686519456499
0.2687324824918488
0.1705332022474029
-0.6002061187756879
-0.5404010434386083
2.332488942894364
1.9952133012913906
-0.014257595839923734
-0.2352664539997571
-0.12196100380204059
0.16889594409376146
-1.0064289278106
0.26576641238944826
0.1801380786282694
0.03905223081081485
0.10135676204484717
0.347362728736229
-0.008682688339330414
0.3932827994876427
0.2197152276780547
0.3663370845744396
0.5347505372010459
0.716723966762871
0.42311205154863635
0.4970540283908518
0.322108481742393
0.21875258852780252
0.12752033109540667
0.053845367681505905
-0.0016305342714530602
-0.04151002431374473
-0.06558637442738251
-0.04119112290347131
-0.08058679143670236
-0.06758879850437895
-0.08430077511908021
-0.09008889438227555
-0.09402212170364982
-0.0991862973368847
-0.09582905749823277
-0.0992177264943558
-0.1013919077089354
-0.10184058098746829
-0.10108041124621879
0.013840858557386886
0.13970857544615084
0.3079790961469169
-0.26982941578970643
0.09687530679277616
0.61813022771407
0.537727744014327
2.8036408528240675
1.9883205203633845
0.38717030483930415
0.42801990393627987
0.47752178020750996
0.004781726498211526
0.30695901365300665
-0.024648105415790086
-0.2824256128592742
0.589189188683494
0.5124023580245914
0.07570034030590535
-0.10322017102882572
-0.10472083166383014
-0.1008406143919585
-0.10382207074714693
-0.09306563257313133
-0.08988238498374929
-0.07166067924959024
-0.04160775211482541
0.30944268813090053
0.033956366052785285
1.2650001073999033
1.4602337268835446
0.2655945863060397
0.09019153160802773
0.18038703708431542
0.4148560002347698
-0.10536729417312503
-0.10433778265023579
-0.11013512146661275
-0.10448626714431018
-0.11189059064373144
-0.09790447342526547
-0.0988332013198103
-0.02803053661997183
0.14415500753637506
5.320999295333113
5.209113383194731
-0.012093112812327854
2.0940041700333274
0.48593035493559256
-0.10265512132939135
-0.1031187588929658
-0.10135094701981781
0.4010914182173012
-0.09984086951051518
-0.10269253706772177
-0.10098847496717175
-0.09588868141847008
-0.09127304112612684
-0.09484208780604725
-0.08666839440882915
-0.07952108784209631
-0.06724681054185697
-0.06522504928958821
-0.04217139544076302
0.011131519077960148
0.4872497450962614
0.06049699066921638
0.16281859444253896
0.24343799058149773
-0.06947989876224354