# vtk DataFile Version 1.0
2D Simulation C++
ASCII
DATASET UNSTRUCTURED_GRID
FIELD FieldData 1
NODES 1 2 int
348 601

POINTS 348 double
0.0 0.5 0.0
0.0 1.0 0.0
2.0 1.0 0.0
2.0 0.5 0.0
0.0 0.528801679611206 0.0
0.0 0.564507782459259 0.0
0.0 0.6110168099403381 0.0
0.0 0.6721802353858948 0.0
0.0 0.7528436183929443 0.0
0.0 0.8593378663063049 0.0
0.16666941344738007 1.0 0.0
0.3333356976509094 1.0 0.0
0.5000020265579224 1.0 0.0
0.6666678786277771 1.0 0.0
0.8333337306976318 1.0 0.0
1.0 1.0 0.0
1.1666662693023682 1.0 0.0
1.3333321809768677 1.0 0.0
1.4999979734420776 1.0 0.0
1.6666642427444458 1.0 0.0
1.8333306312561035 1.0 0.0
2.0 0.8593378663063049 0.0
2.0 0.7528436183929443 0.0
2.0 0.6721802353858948 0.0
2.0 0.6110168099403381 0.0
2.0 0.564507782459259 0.0
2.0 0.528801679611206 0.0
0.029850948601961136 0.5 0.0
0.05970168858766556 0.5 0.0
0.08955242484807968 0.5 0.0
0.1194031685590744 0.5 0.0
0.14925390481948853 0.5 0.0
0.17910465598106384 0.5 0.0
0.20895539224147797 0.5 0.0
0.2388061285018921 0.5 0.0
0.2686568796634674 0.5 0.0
0.29850760102272034 0.5 0.0
0.32835835218429565 0.5 0.0
0.35820910334587097 0.5 0.0
0.3880598247051239 0.5 0.0
0.4179105758666992 0.5 0.0
0.44776129722595215 0.5 0.0
0.47761204838752747 0.5 0.0
0.5074627995491028 0.5 0.0
0.5373135209083557 0.5 0.0
0.5671642422676086 0.5 0.0
0.5970150232315063 0.5 0.0
0.6268657445907593 0.5 0.0
0.6567164659500122 0.5 0.0
0.6865672469139099 0.5 0.0
0.7164179682731628 0.5 0.0
0.7462686896324158 0.5 0.0
0.7761194705963135 0.5 0.0
0.8059701919555664 0.5 0.0
0.8358209133148193 0.5 0.0
0.865671694278717 0.5 0.0
0.89552241563797 0.5 0.0
0.9253731369972229 0.5 0.0
0.9552239179611206 0.5 0.0
0.9850746393203735 0.5 0.0
1.0149253606796265 0.5 0.0
1.0447760820388794 0.5 0.0
1.0746268033981323 0.5 0.0
1.1044776439666748 0.5 0.0
1.1343283653259277 0.5 0.0
1.1641790866851807 0.5 0.0
1.1940298080444336 0.5 0.0
1.2238805294036865 0.5 0.0
1.2537312507629395 0.5 0.0
1.2835819721221924 0.5 0.0
1.3134328126907349 0.5 0.0
1.3432835340499878 0.5 0.0
1.3731342554092407 0.5 0.0
1.4029849767684937 0.5 0.0
1.4328356981277466 0.5 0.0
1.4626864194869995 0.5 0.0
1.492537260055542 0.5 0.0
1.522387981414795 0.5 0.0
1.5522387027740479 0.5 0.0
1.5820894241333008 0.5 0.0
1.6119401454925537 0.5 0.0
1.6417908668518066 0.5 0.0
1.6716417074203491 0.5 0.0
1.701492428779602 0.5 0.0
1.731343150138855 0.5 0.0
1.761193871498108 0.5 0.0
1.7910445928573608 0.5 0.0
1.8208953142166138 0.5 0.0
1.8507460355758667 0.5 0.0
1.8805968761444092 0.5 0.0
1.910447597503662 0.5 0.0
1.940298318862915 0.5 0.0
1.970149040222168 0.5 0.0
1.7358819246292114 0.7499510645866394 0.0
0.2656642198562622 0.7486277222633362 0.0
0.49981194734573364 0.737183690071106 0.0
0.74151611328125 0.7359843254089355 0.0
0.9774143695831299 0.7371892929077148 0.0
1.201690912246704 0.7367381453514099 0.0
1.447761058807373 0.7383390665054321 0.0
1.8591958284378052 0.6421071290969849 0.0
0.14080412685871124 0.6421071290969849 0.0
1.588537573814392 0.6783608794212341 0.0
0.2553686201572418 0.6221352219581604 0.0
1.7466964721679688 0.6278358101844788 0.0
0.38199201226234436 0.6273008584976196 0.0
0.5013589859008789 0.6272794008255005 0.0
0.6207823157310486 0.6272526383399963 0.0
0.7401852607727051 0.627252459526062 0.0
0.8595882654190063 0.6272523999214172 0.0
0.9701492786407471 0.6212864518165588 0.0
1.0807102918624878 0.6272523999214172 0.0
1.2001131772994995 0.6272523999214172 0.0
1.3195161819458008 0.6272523999214172 0.0
1.4488563537597656 0.6310953497886658 0.0
1.9247323274612427 0.5706554055213928 0.0
0.07526770234107971 0.5706554055213928 0.0
1.5377081632614136 0.5910930037498474 0.0
1.6566967964172363 0.5934624075889587 0.0
1.8074009418487549 0.5708622932434082 0.0
0.1940300166606903 0.5737577676773071 0.0
1.0286364555358887 0.5665481686592102 0.0
1.14803946018219 0.5665481686592102 0.0
0.9116620421409607 0.5665481686592102 0.0
1.2674424648284912 0.5665481686592102 0.0
0.7922590970993042 0.5665481686592102 0.0
0.6728560328483582 0.5665482878684998 0.0
0.5534531474113464 0.5665481686592102 0.0
1.3892061710357666 0.5727682709693909 0.0
0.43402159214019775 0.5665869116783142 0.0
0.3146642744541168 0.5667200088500977 0.0
1.8656742572784424 0.5607567429542542 0.0
0.1343258023262024 0.5607567429542542 0.0
1.5970147848129272 0.5642029047012329 0.0
1.8783670663833618 0.7786769866943359 0.0
0.12163297086954117 0.7786769866943359 0.0
1.7164177894592285 0.562579333782196 0.0
1.4776118993759155 0.5620538592338562 0.0
1.5857784748077393 0.867691159248352 0.0
0.25373148918151855 0.5588531494140625 0.0
0.9701492786407471 0.5582930445671082 0.0
1.0895521640777588 0.5582930445671082 0.0
0.8507462739944458 0.5582930445671082 0.0
1.20895516872406 0.5582930445671082 0.0
0.7313433289527893 0.5582930445671082 0.0
1.3283581733703613 0.5582930445671082 0.0
0.6119403839111328 0.5582930445671082 0.0
0.49253740906715393 0.5582930445671082 0.0
0.37313446402549744 0.5582956075668335 0.0
0.36864349246025085 0.7376502752304077 0.0
0.602456271648407 0.7355343103408813 0.0
0.8441241383552551 0.7366551756858826 0.0
1.3355978727340698 0.7366551160812378 0.0
1.0895521640777588 0.7378703355789185 0.0
0.07051979005336761 0.6486480832099915 0.0
1.9294801950454712 0.6486480832099915 0.0
1.5086064338684082 0.6743985414505005 0.0
1.6785967350006104 0.6649783849716187 0.0
1.9543375968933105 0.5452249050140381 0.0
0.04566239193081856 0.5452249050140381 0.0
1.6567095518112183 0.5496091842651367 0.0
1.53738272190094 0.5491842031478882 0.0
0.91306072473526 0.8965699672698975 0.0
1.7782752513885498 0.5446287989616394 0.0
1.4163299798965454 0.5447981357574463 0.0
0.4287482798099518 0.8945969939231873 0.0
1.2610714435577393 0.8950135707855225 0.0
0.4313095211982727 0.6832783222198486 0.0
0.31561949849128723 0.6858259439468384 0.0
1.029850721359253 0.6781684160232544 0.0
0.9082015752792358 0.6848641633987427 0.0
1.1492537260055542 0.6781684160232544 0.0
0.7886138558387756 0.678956151008606 0.0
1.2709345817565918 0.684736430644989 0.0
0.6685023903846741 0.6868807673454285 0.0
1.4007169008255005 0.6702371835708618 0.0
0.5483440160751343 0.6792802214622498 0.0
0.19808045029640198 0.6887137293815613 0.0
1.797759771347046 0.6853783130645752 0.0
0.6811949610710144 0.8757594227790833 0.0
1.0189321041107178 0.8474968671798706 0.0
0.7922950983047485 0.8446238040924072 0.0
1.3765455484390259 0.8590760827064514 0.0
1.1571698188781738 0.8478953838348389 0.0
1.8954496383666992 0.5359624624252319 0.0
1.8360060453414917 0.5359931588172913 0.0
0.10455036163330078 0.5359624624252319 0.0
0.16417928040027618 0.5353734493255615 0.0
0.5530290007591248 0.8422092199325562 0.0
0.2832632064819336 0.5367912650108337 0.0
0.22469767928123474 0.5394234657287598 0.0
0.9405550956726074 0.5357381105422974 0.0
0.9997434020042419 0.5357381105422974 0.0
1.0600273609161377 0.5365630984306335 0.0
1.1191463470458984 0.5357381105422974 0.0
0.8802711367607117 0.5365630984306335 0.0
0.8211521506309509 0.5357381105422974 0.0
1.2385493516921997 0.5357381105422974 0.0
1.179430365562439 0.5365630984306335 0.0
0.7608681321144104 0.5365630984306335 0.0
0.7017492055892944 0.5357381105422974 0.0
1.2988333702087402 0.5365630984306335 0.0
1.357560396194458 0.5390686392784119 0.0
0.5823462605476379 0.5357381105422974 0.0
0.6414651870727539 0.5365630984306335 0.0
0.5220622420310974 0.5365630984306335 0.0
0.4629422128200531 0.535739541053772 0.0
0.3435409665107727 0.5357455015182495 0.0
0.4026572108268738 0.5365669131278992 0.0
0.21006634831428528 0.8590372204780579 0.0
1.7943172454833984 0.8627070188522339 0.0
0.06134982034564018 0.7191494703292847 0.0
1.938650131225586 0.7191494703292847 0.0
1.634666085243225 0.7584379315376282 0.0
0.3355695903301239 0.8387951850891113 0.0
1.537941336631775 0.7633647918701172 0.0
1.9670078754425049 0.574067234992981 0.0
0.032992132008075714 0.574067234992981 0.0
1.6862140893936157 0.5314788222312927 0.0
1.6272135972976685 0.5317342281341553 0.0
1.5077245235443115 0.5309156775474548 0.0
1.5668202638626099 0.5316618084907532 0.0
1.7466963529586792 0.5298213958740234 0.0
1.4473658800125122 0.5297333002090454 0.0
1.804386019706726 0.5275400876998901 0.0
1.9283779859542847 0.5282225012779236 0.0
1.8656879663467407 0.5267112255096436 0.0
0.13432854413986206 0.5271331071853638 0.0
0.07162196189165115 0.5282225012779236 0.0
0.25373148918151855 0.527070939540863 0.0
0.19419340789318085 0.5297109484672546 0.0
0.31349387764930725 0.5272363424301147 0.0
0.37313446402549744 0.5270199179649353 0.0
0.4329495429992676 0.5274069309234619 0.0
0.49253740906715393 0.5270196795463562 0.0
0.5523557066917419 0.5274024605751038 0.0
1.3898069858551025 0.5277745127677917 0.0
1.3283581733703613 0.5270196795463562 0.0
0.6119403839111328 0.5270196795463562 0.0
1.2685397863388062 0.5274024605751038 0.0
0.6717586517333984 0.5274024605751038 0.0
0.7313433289527893 0.5270196795463562 0.0
1.20895516872406 0.5270196795463562 0.0
0.7911616563796997 0.5274024605751038 0.0
0.8507462739944458 0.5270196795463562 0.0
1.1491369009017944 0.5274024605751038 0.0
1.0895521640777588 0.5270196795463562 0.0
0.9105646014213562 0.5274024605751038 0.0
0.9701492786407471 0.5270196795463562 0.0
1.0297338962554932 0.5274024605751038 0.0
1.4776118993759155 0.5259945392608643 0.0
1.597015619277954 0.5255197882652283 0.0
1.7164177894592285 0.525999903678894 0.0
1.6834615468978882 0.8477573990821838 0.0
1.5822722911834717 0.6086509227752686 0.0
0.20459823310375214 0.6270732283592224 0.0
1.8037469387054443 0.6209055185317993 0.0
0.09990309923887253 0.8589919805526733 0.0
1.9000968933105469 0.8589919805526733 0.0
1.75603187084198 0.5789161324501038 0.0
0.10896337777376175 0.5982794761657715 0.0
1.8910366296768188 0.5982794761657715 0.0
1.4950518608093262 0.605266273021698 0.0
1.7049394845962524 0.6007562279701233 0.0
1.4387125968933105 0.5775743722915649 0.0
1.489302158355713 0.851039469242096 0.0
0.15732239186763763 0.5961292386054993 0.0
1.8436260223388672 0.5944437384605408 0.0
0.4399496018886566 0.6259797215461731 0.0
1.022565245628357 0.6257523894309998 0.0
[...]
POINT_DATA 348
SCALARS Psi double
LOOKUP_TABLE default
1.0878984745313025
1.0
1.0
1.0766684692956923
1.0877880062560918
1.0875451104972838
1.089146808467227
1.0938728055975857
1.103351076043219
1.1418217491859486
1.0
1.0
1.0
1.0
1.0
1.0
1.0
1.0
1.0
1.0
1.0
1.1342685464037503
1.094275124261356
1.084475035512461
1.0798819114070815
1.0777145538359263
1.0768590542308099
1.0879812891157818
1.086711873746922
1.0848223047555918
1.0824207999920135
1.079479810619545
1.0760237479913746
1.0721218737750977
1.0678672939239142
1.0633834608390573
1.0587584764808131
1.0540920621386496
1.0494630469637716
1.0449565224180197
1.0406243934833188
1.0364944249311376
1.0325996193914375
1.0289672845803022
1.0256109401206777
1.0225183846386572
1.0196944969605959
1.0171381908150439
1.0148448621866166
1.012790584570046
1.0109687793473185
1.009369171729187
1.0079826247844144
1.0067887564397346
1.0057803761547184
1.0049494030366382
1.0042890029801612
1.0037866648271205
1.003438299504997
1.0032411997518285
1.0031934444490682
1.0032914483619917
1.0035346313188451
1.003928574421807
1.0044762172339838
1.0051807820691558
1.0060462359124143
1.0070859530680996
1.0083062726199838
1.009714470152805
1.011316260670303
1.013134552982734
1.0151740581646758
1.017430970172811
1.0199346786922714
1.022676493200037
1.0256555035887072
1.0288722149401726
1.0323240683417283
1.0359903892690234
1.039839537870914
1.0438338440996497
1.0479255364126205
1.0520543033188252
1.0561439083538213
1.060107258046075
1.0638381740695544
1.067240212822557
1.070204758755204
1.0726291927797953
1.074475647727665
1.0757491274978102
1.0764613444751159
1.0467867111378286
1.051885497525877
1.0201199546276187
1.0058086489334175
1.0016730891773413
1.00364394880616
1.0139159672020592
1.0733682571208885
1.082112746666565
1.0311074485233303
1.0635343110357394
1.05668960583782
1.0425530036615482
1.026824153599126
1.0156243625080312
1.008449778943839
1.0043633589044632
1.0028457869329197
1.0030421304948596
1.005401094544987
1.0102988520134204
1.019045707237047
1.07628159705967
1.08567654507185
1.0292513435182198
1.0445295117615083
1.0659083919330674
1.0740341916445835
1.0030690601905081
1.0045811567914156
1.0038189307180956
1.0086117115733366
1.0070315647888113
1.013238459582781
1.0232041805597885
1.0157540905160747
1.0374860202870244
1.0554784180309358
1.0719808303284832
1.0811616401576616
1.0372069616852684
1.078243879493548
1.0863580195029066
1.0536728173344554
1.0235734736197761
1.0130768691799537
1.0652546101432756
1.0031970526526923
1.0035798883674354
1.005165743302264
1.0063427131554004
1.0098477970136228
1.0118732771858778
1.0179114427932061
1.0300947467157187
1.0464794893217615
1.035694769492312
1.0123546185187442
1.0031387427971654
1.0079927421255237
1.0019375178823842
1.090263855759647
1.0807843179053762
1.0226367968243042
1.044579793201572
1.07664865303142
1.086929774256076
1.0454993564710262
1.0301804045071425
1.0004324779692384
1.0622233995457202
1.0182593123459018
1.0105238643852292
1.0014801911135343
1.0321300519057421
1.0494026492206445
1.002286692557609
1.0028325833766865
1.0035487594584067
1.0056184818393585
1.0068375195739405
1.0105844967913724
1.014016969433794
1.019584624708767
1.0716959174954241
1.0635402041741315
1.0033690889009759
1.000551528969523
1.0019091530493545
1.0044737988554984
1.0011770795208714
1.073882678695102
1.0689326687311567
1.0837058532389319
1.0778577789001083
1.0080518454401863
1.0609556648568703
1.069822466247514
1.0035449097365103
1.0031568982968235
1.003351435751414
1.004128349336997
1.0045480025402391
1.006184409368029
1.0075849560897476
1.0055370179544627
1.00857213347982
1.0117220720385363
1.0104033158595866
1.0139270179546438
1.020873177171171
1.0158334217809302
1.0270743051552769
1.0342521733246488
1.0515054292623969
1.042562082440215
1.0395567065688889
1.036211233949432
1.0980435920212341
1.0884747660223244
1.0302226294020085
1.026617748462412
1.0193764488315864
1.0777981806618593
1.0869960836424433
1.0498144935288365
1.0417081051305914
1.027115336009119
1.0339262737120885
1.058149944695088
1.0211277924961617
1.0654241818660912
1.0754785720893958
1.071589655568481
1.0810291667877103
1.0859076136452155
1.065560421452587
1.0740717862037072
1.0562842959158776
1.0470323713537197
1.0383626600057183
1.0306044753188992
1.023898084037318
1.0163204859371602
1.0121235365696084
1.0182792588373928
1.0089275205236596
1.013700678022734
1.0100775782890958
1.0065003904511682
1.0073102834070995
1.0053049712362763
1.0047733075373466
1.00368430568685
1.003987409032742
1.003294880485654
1.003199690114514
1.0240373576886568
1.037782711234251
1.0540276656570928
1.024732127939241
1.034023728553996
1.0720977954407074
1.065417477709817
1.0766798885091504
1.0694555700192032
1.0590427059172094
1.0841870038856907
1.0751055971644845
1.024234064479861
1.051239823929865
1.0196470455288942
1.009131994077542
1.079060529457703
1.070403240199117
1.0344440064241531
1.002701771882063
1.0033116068245167
1.003983336557922
1.0061442473903037
1.0075903526304462
1.0117379898398409
1.013196772310038
1.0208948220833898
1.0530712580605175
1.0269044501689362
1.0769456126149362
1.0853521982464167
1.0490327201349494
1.0329780828949413
1.0415769128914436
1.0531510677516074
1.0023830258634316
1.0026693189367997
1.003941891265384
1.005021975658951
1.0079147627525877
1.0097441059495147
1.0144741787154015
1.0255108296298152
1.0411378680171361
1.10797203400884
1.0992860060515626
1.0766662395874034
1.0879553705169622
1.0607630654459808
1.0029734871974278
1.0032515759092726
1.0031706624048558
1.0612209314000218
1.0037527088437668
1.004377022412305
1.0056003464239447
1.0053642800425262
1.0069008655040712
1.0083446694741374
1.0107080772613373
1.010158338220315
1.0127990592988612
1.0154620519738948
1.0192794235515827
1.0265465389408555
1.0680748970016483
1.0320716500099767
1.0420100804643433
1.0488854790856983
1.0174362727444886
1.0457873258963708
1.030481826935999
1.0386471658399896
1.0014570166479684
1.0217583110641322
1.0389659104526823
1.0837777928203676
1.0744046643022855
1.0002569121922726
1.0282062277005468
1.0692428658769288
1.078109347572599
1.0039401957435081
1.0875215093440602
1.0771331068068803
1.08721364101571
1.0783251135203855
1.0690638753849704
1.0624278431999377
1.062006016625682
1.01859751711008
1.001053800784194
1.0163453083027436
1.0065916818144502
1.0761908358270194
1.0872104888888579
1.052818722285957
1.0469710938959484

SCALARS Omega double
LOOKUP_TABLE default
4.100276590706694
-10.327730796186849
-14.268649564694954
0.13217857037244699
4.492515426320478
-2.6837945541241384
-4.473557661257811
3.542292222695096
1.0314781535700135
20.8426454603775
-8.188675201952973
-0.40947252354338015
-0.8985275674510022
-0.2342139626970828
-0.11369098259885572
-0.030612115311318938
-0.11116901287391402
-0.18643504425765872
-0.656989282111889
-0.6110339269367413
-6.115745385937145
17.943670584514575
3.512463678309084
-1.037908126986686
0.14534828392608307
0.03351225761176427
-0.3220314019313079
2.111361729359335
1.0918367787631307
0.7143021737506569
0.5849518483257137
0.5327239423563759
0.507078022968852
0.47819019547968505
0.441536887243415
0.39741178103301983
0.3477326861705331
0.2962463965168575
0.24497892130395604
0.19618313477229057
0.15080900443093778
0.10952048399332115
0.07261347547462606
0.04033345578093858
0.0125697054267046
-0.011155348669355794
-0.031081816876578017
-0.0475245875366061
-0.0608113945701993
-0.07154132161466613
-0.08001354896533536
-0.08658310331225359
-0.0915138939004685
-0.09520529742877606
-0.09785148920636727
-0.0996729990038079
-0.10081313612928547
-0.101463828786414
-0.10170958236601253
-0.10162686442729776
-0.10124795661690013
-0.10059290521856679
-0.09964828854546554
-0.09834302755791602
-0.09661227612303985
-0.09434272007337857
-0.0914262548034824
-0.08763222310540383
-0.08279842766010184
-0.07668844199319877
-0.06909526759022523
-0.05954731442954985
-0.04780290058036116
-0.033664971415642224
-0.016472749437481934
0.003910501195973532
0.027743083596147057
0.055309122244021895
0.08677693490952361
0.1220369062829553
0.16057613256289638
0.20168960609751163
0.2440135066986494
0.285935089664444
0.3247869466883474
0.35760137067993636
0.3795471554354673
0.38524800535419784
0.3706556223362088
0.3300023911792854
0.2610341032180502
0.1651091933810327
0.06635078664526106
0.31510667835825795
0.3393627788740768
-0.11646412725620986
-0.1309118558825786
-0.10570544150271032
-0.11366535169243155
-0.12385496944900512
0.7178328077080984
0.8448250618848719
0.04691930054625549
0.46988162837187414
0.40812474750509675
0.16694960836149075
0.0028975486995389643
-0.07395212407561745
-0.10007943865270832
-0.10519634112738648
-0.10385548262089861
-0.10230780448090711
-0.09843631477976666
-0.08460653067887042
-0.040685623087049226
0.30650981090951773
0.09488991734743997
0.05186250975291729
0.21730105510682976
0.4399174104696208
0.5280590909329843
-0.10168073341330848
-0.09715104899465178
-0.10234065145606554
-0.0837276179538175
-0.0965915953721415
-0.0732044408168758
-0.0111719303660441
-0.04893133407608727
0.11627850811514416
0.32074728138237
0.40938443077110775
0.4908519703269251
0.13352109650511684
2.2490601196544224
2.5274009282482854
0.31560108680983134
0.007244178561819385
-0.3187831366937705
0.434289484203821
-0.1023109221258837
-0.09981692415848321
-0.1003616079531942
-0.09157789812485624
-0.08711258924428171
-0.06873061859138917
-0.046554570057795
0.04633406087192778
0.21351020385667582
0.04064205033899077
-0.14344316588518224
-0.1168035569740272
-0.12342029398391359
-0.10619346610271832
0.967627232473529
0.5747828402759443
-0.03102886878608517
0.2379945716921238
0.14049951466714072
0.4503874087661296
0.22190937474093309
0.06523625506506794
-0.09857906909805846
0.38752322470514583
-0.03006943215067139
-0.41888398945337046
-0.15081366004918867
0.03255470455487628
0.2753749215162782
-0.10461616104318577
-0.1080751826575069
-0.10488148929320579
-0.11268902053675067
-0.1049721381757891
-0.11310599665197328
-0.0819065299850106
-0.07324263286778979
0.836115503128388
0.6923071888123024
-0.20088340346284406
-0.09796264775708166
-0.14249513458289903
-0.2089131416282117
-0.11464430926972906
0.32160350051722797
0.3990826753845056
0.5432661525266809
0.518151606051364
-0.30164007160033174
0.37625886762808264
0.46768784759215054
-0.10188407193488036
-0.10167069924721714
-0.10038420664849534
-0.09788439609921863
-0.10072929895455053
-0.09731626494156553
-0.08620622487207638
-0.09350529948634846
-0.090232761692714
-0.07756312814066346
-0.07426980863190456
-0.05627397238905996
-0.024308272820113854
-0.056498588881847445
0.023020100452391046
0.0869776247483866
0.26890621679015564
0.17062922488288057
-0.6191909302982925
-0.5147470849792805
2.329445224829826
1.977775432573709
-0.011509735709243026
-0.23816940788119018
-0.1206283902074764
0.16690677672952942
-1.0217322046900041
0.2655262811658646
0.1801728015548242
0.03920614893783184
0.10148348668633889
0.3466251475884952
-0.008566666824803927
0.3920916330255083
0.21860644211182048
0.36523518445232983
0.5338230400334479
0.7124939977922419
0.42341547323214873
0.4972714402012421
0.3222716196167805
0.21880357251589677
0.12752218891001627
0.05381236157338963
-0.0016606494060026652
-0.04142764792567049
-0.0655403082820604
-0.041222417609871866
-0.08056137915574438
-0.06760898982036936
-0.08431586645584488
-0.09007820480591756
-0.09403104090192659
-0.09919240659831338
-0.09582606435594625
-0.09921885850929811
-0.10139610040679882
-0.1018440715116623
-0.10108331871927022
0.01396225280633955
0.13979944038143316
0.3076025270793897
-0.2638912741047331
0.09725913438891742
0.6218180595810291
0.5337798654318503
2.9039953772614893
2.155648206527866
0.3856460212302985
0.4315959592172379
0.47340738244020575
0.005161759456763669
0.3062370631028237
-0.024410382925721348
-0.2810106971984695
0.5921227817090584
0.5085895252845882
0.07552629432333752
-0.10322296563868665
-0.10472893594845178
-0.10082993523136428
-0.10385718012365414
-0.09299651302676126
-0.08998796830180181
-0.07147384959361852
-0.041828837056806636
0.31016150232058326
0.034135991974222665
1.2523254611623054
1.4785748224467974
0.2651621011001991
0.09036934165734341
0.18033095568701846
0.4136173790638283
-0.10537196452390099
-0.10433475314582677
-0.11016426376144631
-0.10444550447074824
-0.11200115807170005
-0.0977274680734555
-0.09915262459441106
-0.028490042302154305
0.14423106377190864
5.598342302357295
5.403331021277784
-0.012855761041352646
2.0975690303006265
0.48885287029462227
-0.1026592859067191
-0.1031238325435859
-0.10135194237670965
0.4019969000672152
-0.09983805180784659
-0.10270297274347806
-0.10100566524091725
-0.09587048076991672
-0.09124247606180916
-0.09487818967084902
-0.086722866664849
-0.079440713360288
-0.06713690630026824
-0.06531830575463132
-0.042286176040571194
0.010999427305293002
0.48867830833552905
0.06039492002957905
0.16287202303529041
0.24370900269916929
-0.06902116947855758
0.2226250911965674
0.06938332963038002
0.149141276838299
-0.10985028282606744
-0.1682993789646713
0.15224910692744484
0.3821709174625923
0.37518986549218064
-0.08900149901502524
0.032410882748040805
0.4400053673298559
0.5321896092549669
-0.13409298146301782
0.46689768321415054
0.011219789479127896
-0.5101373605665233
0.34085160654389846
1.0203185726604704
0.9271598515023697
0.37332386718504373
-0.02622249947955787
-0.1725691128871522
-0.05296720238033945
-0.1661729549884944
0.11856080341795966
1.2482118258161896
0.5729328670542287
-1.2167721134527094

SCALARS Vx_analytic double
LOOKUP_TABLE default
4.100276590706694
-10.327730796186849
-14.268649564694954
0.13210637944853382
4.492515426320478
-2.6837945541241384
-4.473557661257811
3.542292222695096
1.0314781535700135
20.8426454603775
-8.188675201952973
-0.40947252354338015
-0.8985275674510022
-0.2342139626970828
-0.11369098259885572
-0.030612115311318938
-0.11116901287391402
-0.18643504425765872
-0.6569892821118888
-0.6110339269367413
-6.115745385937145
17.943670584514575
3.5132646959480347
-1.0157705221712245
0.14755554014972583
0.03451969891514687
-0.3200761985462625
2.111361729359335
1.0918367787631307
0.7143021737506569
0.5849518483257137
0.5327239423563759
0.507078022968852
0.47819019547968505
0.441536887243415
0.39741178103301983
0.3477326861705331
0.2962463965168575
0.24497892130395604
0.19618313477229057
0.15080900443093778
0.10952048399332115
0.07261347547462606
0.04033345578093858
0.0125697054267046
-0.011155348669355794
-0.031081816876578017
-0.0475245875366061
-0.0608113945701993
-0.07154132161466613
-0.08001354896533536
-0.08658310331225359
-0.0915138939004685
-0.09520529742877606
-0.09785148920636727
-0.0996729990038079
-0.10081313612928547
-0.101463828786414
-0.10170958236601253
-0.10162686442729776
-0.10124782333090128
-0.10059293777202287
-0.0996484508515527
-0.09834349779354129
-0.0966131173178456
-0.09434451484289146
-0.0914286149713344
-0.08763596685956887
-0.08280333937576698
-0.07669661055973341
-0.06910495829755853
-0.05956144565363409
-0.047822984871695805
-0.03367245792756714
-0.016485389178645525
0.0038884115906474715
0.027721520275031806
0.05529747581991469
0.08676828142783789
0.12202034524183444
0.1605745317584798
0.20170954748417363
0.2440664354203342
0.2860015845945521
0.3248965453744311
0.3577128699607032
0.37972785743011417
0.38560071633590487
0.37102831643539275
0.3304074134205024
0.26136830571396213
0.16535185084803525
0.06630766767362911
0.30728902788206786
0.337170614144654
-0.11573714631329797
-0.13079943868079477
-0.10570535418489777
-0.11372780162355746
-0.12456353013027172
0.726999738891147
0.8347617251716147
0.046007270930517416
0.46799101171740565
0.4105073472835919
0.16692146370166108
0.003136670356253251
-0.07378379621491936
-0.10001567111355479
-0.105181269153684
-0.1038529615327077
-0.10231052493281247
-0.09846831893316708
-0.08473012628697624
-0.04101671647826641
0.3086317368523937
0.10164156773482273
0.05153787244633243
0.21754434413039825
0.4422804083127149
0.5270414712639734
-0.10168036256797974
-0.0971593195795124
-0.10233728062803847
-0.0837700036200465
-0.09657555875671783
-0.0731579110565164
-0.011102325305841468
-0.04907507703009622
0.11625277914220983
0.3202582305603965
0.4115959589485407
0.4921555329044354
0.1334067729662676
2.256243746280113
2.465884214392042
0.316201045430532
0.007045943575090646
-0.31995283385701034
0.43353010373780493
-0.10230954360405592
-0.09981883636042523
-0.10035371408283246
-0.09159326634211334
-0.08708221192285644
-0.0687861125876212
-0.04648330063548516
0.046411188893724406
0.21338885566850618
0.041510521641348365
-0.14299730740762406
-0.11677288544831887
-0.12376119474615178
-0.10620445911496611
0.892616021176453
0.5831067610709784
-0.031782753964218015
0.23793720700640383
0.14188665767353453
0.4592261056329897
0.2220384818969991
0.06507796852147296
-0.09857957060080094
0.3884750782170694
-0.030156940158750246
-0.4175139101896865
-0.15089691894364957
0.03283307551726939
0.2746372745276261
-0.10461649070827587
-0.10806434417451348
-0.1049060999243923
-0.11263371702062724
-0.1050894820413256
-0.11291174894743393
-0.08229300500923109
-0.0728763235887533
0.8282370824309973
0.6979119990763081
-0.20066822628251796
-0.09797116873858334
-0.14243483112033622
-0.20985492117956767
-0.11468426144383079
0.32291998633113767
0.4004661607366
0.5455847676230102
0.5182087426833839
-0.3007930977791718
0.3759623341846569
0.46729198964204494
-0.10188332618663908
-0.10167020306135219
-0.100385024761569
-0.09788823457255202
-0.10072764378161783
-0.09731253317400256
-0.08622901199023326
-0.0935173517616497
-0.09022640686322733
-0.07755275225370502
-0.07432039113576192
-0.05635099475532462
-0.024297348520283847
-0.05648791635408124
0.023012126383860743
0.08694559978997983
0.26873183126727995
0.17053225553993134
-0.6002055563278982
-0.5404004026488438
2.3324891607195384
1.9952133236563998
-0.01425735860724895
-0.23526584221127597
-0.12196078587805445
0.16889580925025824
-1.006428529384837
0.2657657166096978
0.180137188076654
0.03905086770619856
0.1013556440104826
0.34736219818791825
-0.008684317302901805
0.3932823968066125
0.21971500706132285
0.3663367861876963
0.5347506764810412
0.7167242437819197
0.42311179414732475
0.4970539902369656
0.32210796530169467
0.2187517844456834
0.1275192154134297
0.053843934069786305
-0.0016322869081637774
-0.0415119090340025
-0.06558852186262162
-0.041193175656081014
-0.08058918277624698
-0.06759112942983656
-0.08430334363425805
-0.0900914980258367
-0.0940248879513163
-0.0991892050785749
-0.0958318418360929
-0.09922064198614249
-0.10139490538429961
-0.10184360591092555
-0.10108341125860339
0.013839358873458505
0.13970756698849707
0.30797848377144293
-0.2698286979274616
0.09687450639567668
0.6181302600437395
0.5377275133915645
2.8036412446941914
1.9883210007676932
0.3871698796690824
0.42802012365236264
0.4775215944808193
0.004780604315048511
0.30695853283530306
-0.024649599461991207
-0.2824246641588597
0.5891893003710476
0.51240211545755
0.07569952436039382
-0.10322245711817657
-0.10472312400440992
-0.1008427290531596
-0.10382419208168496
-0.09306742933842795
-0.0898841685919372
-0.07166214117436909
-0.04160908084526162
0.30944238308074584
0.03395512563276372
1.2650001534268693
1.4602339629640613
0.2655939529076365
0.09019050194408855
0.18038623691612482
0.4148559105263285
-0.10536895997846875
-0.10433929791513372
-0.1101366566130077
-0.1044876011011053
-0.11189194524389105
-0.09790551033395917
-0.09883423173047616
-0.028031204075316712
0.14415472616622624
5.320999423341292
5.209113620385498
-0.012093327206566702
2.0940044606870543
0.4859303616939287
-0.10265781763276029
-0.10312143073052475
-0.10135355786033483
0.40109114422523645
-0.09984341826622156
-0.10269514990735029
-0.10099102270819087
-0.0958910392713471
-0.09127527302780077
-0.0948444342155545
-0.08667060204359449
-0.07952304999816656
-0.06724860792960645
-0.06522695896330155
-0.04217311355663738
0.011130156313927862
0.4872496264640605
0.06049584381106404
0.16281780626575978
0.24343739676817708
-0.06948058579246398
0.22266343638501476
0.06925833929662534
0.149157585271446
-0.10984270264007949