# vtk DataFile Version 1.0
2D Simulation C++
ASCII
DATASET UNSTRUCTURED_GRID
FIELD FieldData 1
NODES 1 2 int
348 601

POINTS 348 double
0.0 0.5 0.0
0.0 1.0 0.0
2.0 1.0 0.0
2.0 0.5 0.0
0.0 0.528801679611206 0.0
0.0 0.564507782459259 0.0
0.0 0.6110168099403381 0.0
0.0 0.6721802353858948 0.0
0.0 0.7528436183929443 0.0
0.0 0.8593378663063049 0.0
0.16666941344738007 1.0 0.0
0.3333356976509094 1.0 0.0
0.5000020265579224 1.0 0.0
0.6666678786277771 1.0 0.0
0.8333337306976318 1.0 0.0
1.0 1.0 0.0
1.1666662693023682 1.0 0.0
1.3333321809768677 1.0 0.0
1.4999979734420776 1.0 0.0
1.6666642427444458 1.0 0.0
1.8333306312561035 1.0 0.0
2.0 0.8593378663063049 0.0
2.0 0.7528436183929443 0.0
2.0 0.6721802353858948 0.0
2.0 0.6110168099403381 0.0
2.0 0.564507782459259 0.0
2.0 0.528801679611206 0.0
0.029850948601961136 0.5 0.0
0.05970168858766556 0.5 0.0
0.08955242484807968 0.5 0.0
0.1194031685590744 0.5 0.0
0.14925390481948853 0.5 0.0
0.17910465598106384 0.5 0.0
0.20895539224147797 0.5 0.0
0.2388061285018921 0.5 0.0
0.2686568796634674 0.5 0.0
0.29850760102272034 0.5 0.0
0.32835835218429565 0.5 0.0
0.35820910334587097 0.5 0.0
0.3880598247051239 0.5 0.0
0.4179105758666992 0.5 0.0
0.44776129722595215 0.5 0.0
0.47761204838752747 0.5 0.0
0.5074627995491028 0.5 0.0
0.5373135209083557 0.5 0.0
0.5671642422676086 0.5 0.0
0.5970150232315063 0.5 0.0
0.6268657445907593 0.5 0.0
0.6567164659500122 0.5 0.0
0.6865672469139099 0.5 0.0
0.7164179682731628 0.5 0.0
0.7462686896324158 0.5 0.0
0.7761194705963135 0.5 0.0
0.8059701919555664 0.5 0.0
0.8358209133148193 0.5 0.0
0.865671694278717 0.5 0.0
0.89552241563797 0.5 0.0
0.9253731369972229 0.5 0.0
0.9552239179611206 0.5 0.0
0.9850746393203735 0.5 0.0
1.0149253606796265 0.5 0.0
1.0447760820388794 0.5 0.0
1.0746268033981323 0.5 0.0
1.1044776439666748 0.5 0.0
1.1343283653259277 0.5 0.0
1.1641790866851807 0.5 0.0
1.1940298080444336 0.5 0.0
1.2238805294036865 0.5 0.0
1.2537312507629395 0.5 0.0
1.2835819721221924 0.5 0.0
1.3134328126907349 0.5 0.0
1.3432835340499878 0.5 0.0
1.3731342554092407 0.5 0.0
1.4029849767684937 0.5 0.0
1.4328356981277466 0.5 0.0
1.4626864194869995 0.5 0.0
1.492537260055542 0.5 0.0
1.522387981414795 0.5 0.0
1.5522387027740479 0.5 0.0
1.5820894241333008 0.5 0.0
1.6119401454925537 0.5 0.0
1.6417908668518066 0.5 0.0
1.6716417074203491 0.5 0.0
1.701492428779602 0.5 0.0
1.731343150138855 0.5 0.0
1.761193871498108 0.5 0.0
1.7910445928573608 0.5 0.0
1.8208953142166138 0.5 0.0
1.8507460355758667 0.5 0.0
1.8805968761444092 0.5 0.0
1.910447597503662 0.5 0.0
1.940298318862915 0.5 0.0
1.970149040222168 0.5 0.0
1.7358819246292114 0.7499510645866394 0.0
0.2656642198562622 0.7486277222633362 0.0
0.49981194734573364 0.737183690071106 0.0
0.74151611328125 0.7359843254089355 0.0
0.9774143695831299 0.7371892929077148 0.0
1.201690912246704 0.7367381453514099 0.0
1.447761058807373 0.7383390665054321 0.0
1.8591958284378052 0.6421071290969849 0.0
0.14080412685871124 0.6421071290969849 0.0
1.588537573814392 0.6783608794212341 0.0
0.2553686201572418 0.6221352219581604 0.0
1.7466964721679688 0.6278358101844788 0.0
0.38199201226234436 0.6273008584976196 0.0
0.5013589859008789 0.6272794008255005 0.0
0.6207823157310486 0.6272526383399963 0.0
0.7401852607727051 0.627252459526062 0.0
0.8595882654190063 0.6272523999214172 0.0
0.9701492786407471 0.6212864518165588 0.0
1.0807102918624878 0.6272523999214172 0.0
1.2001131772994995 0.6272523999214172 0.0
1.3195161819458008 0.6272523999214172 0.0
1.4488563537597656 0.6310953497886658 0.0
1.9247323274612427 0.5706554055213928 0.0
0.07526770234107971 0.5706554055213928 0.0
1.5377081632614136 0.5910930037498474 0.0
1.6566967964172363 0.5934624075889587 0.0
1.8074009418487549 0.5708622932434082 0.0
0.1940300166606903 0.5737577676773071 0.0
1.0286364555358887 0.5665481686592102 0.0
1.14803946018219 0.5665481686592102 0.0
0.9116620421409607 0.5665481686592102 0.0
1.2674424648284912 0.5665481686592102 0.0
0.7922590970993042 0.5665481686592102 0.0
0.6728560328483582 0.5665482878684998 0.0
0.5534531474113464 0.5665481686592102 0.0
1.3892061710357666 0.5727682709693909 0.0
0.43402159214019775 0.5665869116783142 0.0
0.3146642744541168 0.5667200088500977 0.0
1.8656742572784424 0.5607567429542542 0.0
0.1343258023262024 0.5607567429542542 0.0
1.5970147848129272 0.5642029047012329 0.0
1.8783670663833618 0.7786769866943359 0.0
0.12163297086954117 0.7786769866943359 0.0
1.7164177894592285 0.562579333782196 0.0
1.4776118993759155 0.5620538592338562 0.0
1.5857784748077393 0.867691159248352 0.0
0.25373148918151855 0.5588531494140625 0.0
0.9701492786407471 0.5582930445671082 0.0
1.0895521640777588 0.5582930445671082 0.0
0.8507462739944458 0.5582930445671082 0.0
1.20895516872406 0.5582930445671082 0.0
0.7313433289527893 0.5582930445671082 0.0
1.3283581733703613 0.5582930445671082 0.0
0.6119403839111328 0.5582930445671082 0.0
0.49253740906715393 0.5582930445671082 0.0
0.37313446402549744 0.5582956075668335 0.0
0.36864349246025085 0.7376502752304077 0.0
0.602456271648407 0.7355343103408813 0.0
0.8441241383552551 0.7366551756858826 0.0
1.3355978727340698 0.7366551160812378 0.0
1.0895521640777588 0.7378703355789185 0.0
0.07051979005336761 0.6486480832099915 0.0
1.9294801950454712 0.6486480832099915 0.0
1.5086064338684082 0.6743985414505005 0.0
1.6785967350006104 0.6649783849716187 0.0
1.9543375968933105 0.5452249050140381 0.0
0.04566239193081856 0.5452249050140381 0.0
1.6567095518112183 0.5496091842651367 0.0
1.53738272190094 0.5491842031478882 0.0
0.91306072473526 0.8965699672698975 0.0
1.7782752513885498 0.5446287989616394 0.0
1.4163299798965454 0.5447981357574463 0.0
0.4287482798099518 0.8945969939231873 0.0
1.2610714435577393 0.8950135707855225 0.0
0.4313095211982727 0.6832783222198486 0.0
0.31561949849128723 0.6858259439468384 0.0
1.029850721359253 0.6781684160232544 0.0
0.9082015752792358 0.6848641633987427 0.0
1.1492537260055542 0.6781684160232544 0.0
0.7886138558387756 0.678956151008606 0.0
1.2709345817565918 0.684736430644989 0.0
0.6685023903846741 0.6868807673454285 0.0
1.4007169008255005 0.6702371835708618 0.0
0.5483440160751343 0.6792802214622498 0.0
0.19808045029640198 0.6887137293815613 0.0
1.797759771347046 0.6853783130645752 0.0
0.6811949610710144 0.8757594227790833 0.0
1.0189321041107178 0.8474968671798706 0.0
0.7922950983047485 0.8446238040924072 0.0
1.3765455484390259 0.8590760827064514 0.0
1.1571698188781738 0.8478953838348389 0.0
1.8954496383666992 0.5359624624252319 0.0
1.8360060453414917 0.5359931588172913 0.0
0.10455036163330078 0.5359624624252319 0.0
0.16417928040027618 0.5353734493255615 0.0
0.5530290007591248 0.8422092199325562 0.0
0.2832632064819336 0.5367912650108337 0.0
0.22469767928123474 0.5394234657287598 0.0
0.9405550956726074 0.5357381105422974 0.0
0.9997434020042419 0.5357381105422974 0.0
1.0600273609161377 0.5365630984306335 0.0
1.1191463470458984 0.5357381105422974 0.0
0.8802711367607117 0.5365630984306335 0.0
0.8211521506309509 0.5357381105422974 0.0
1.2385493516921997 0.5357381105422974 0.0
1.179430365562439 0.5365630984306335 0.0
0.7608681321144104 0.5365630984306335 0.0
0.7017492055892944 0.5357381105422974 0.0
1.2988333702087402 0.5365630984306335 0.0
1.357560396194458 0.5390686392784119 0.0
0.5823462605476379 0.5357381105422974 0.0
0.6414651870727539 0.5365630984306335 0.0
0.5220622420310974 0.5365630984306335 0.0
0.4629422128200531 0.535739541053772 0.0
0.3435409665107727 0.5357455015182495 0.0
0.4026572108268738 0.5365669131278992 0.0
0.21006634831428528 0.8590372204780579 0.0
1.7943172454833984 0.8627070188522339 0.0
0.06134982034564018 0.7191494703292847 0.0
1.938650131225586 0.7191494703292847 0.0
1.634666085243225 0.7584379315376282 0.0
0.3355695903301239 0.8387951850891113 0.0
1.537941336631775 0.7633647918701172 0.0
1.9670078754425049 0.574067234992981 0.0
0.032992132008075714 0.574067234992981 0.0
1.6862140893936157 0.5314788222312927 0.0
1.6272135972976685 0.5317342281341553 0.0
1.5077245235443115 0.5309156775474548 0.0
1.5668202638626099 0.5316618084907532 0.0
1.7466963529586792 0.5298213958740234 0.0
1.4473658800125122 0.5297333002090454 0.0
1.804386019706726 0.5275400876998901 0.0
1.9283779859542847 0.5282225012779236 0.0
1.8656879663467407 0.5267112255096436 0.0
0.13432854413986206 0.5271331071853638 0.0
0.07162196189165115 0.5282225012779236 0.0
0.25373148918151855 0.527070939540863 0.0
0.19419340789318085 0.5297109484672546 0.0
0.31349387764930725 0.5272363424301147 0.0
0.37313446402549744 0.5270199179649353 0.0
0.4329495429992676 0.5274069309234619 0.0
0.49253740906715393 0.5270196795463562 0.0
0.5523557066917419 0.5274024605751038 0.0
1.3898069858551025 0.5277745127677917 0.0
1.3283581733703613 0.5270196795463562 0.0
0.6119403839111328 0.5270196795463562 0.0
1.2685397863388062 0.5274024605751038 0.0
0.6717586517333984 0.5274024605751038 0.0
0.7313433289527893 0.5270196795463562 0.0
1.20895516872406 0.5270196795463562 0.0
0.7911616563796997 0.5274024605751038 0.0
0.8507462739944458 0.5270196795463562 0.0
1.1491369009017944 0.5274024605751038 0.0
1.0895521640777588 0.5270196795463562 0.0
0.9105646014213562 0.5274024605751038 0.0
0.9701492786407471 0.5270196795463562 0.0
1.0297338962554932 0.5274024605751038 0.0
1.4776118993759155 0.5259945392608643 0.0
1.597015619277954 0.5255197882652283 0.0
1.7164177894592285 0.525999903678894 0.0
1.6834615468978882 0.8477573990821838 0.0
1.5822722911834717 0.6086509227752686 0.0
0.20459823310375214 0.6270732283592224 0.0
1.8037469387054443 0.6209055185317993 0.0
0.09990309923887253 0.8589919805526733 0.0
1.9000968933105469 0.8589919805526733 0.0
1.75603187084198 0.5789161324501038 0.0
0.10896337777376175 0.5982794761657715 0.0
1.8910366296768188 0.5982794761657715 0.0
1.4950518608093262 0.605266273021698 0.0
1.7049394845962524 0.6007562279701233 0.0
1.4387125968933105 0.5775743722915649 0.0
1.489302158355713 0.851039469242096 0.0
0.15732239186763763 0.5961292386054993 0.0
1.8436260223388672 0.5944437384605408 0.0
0.4399496018886566 0.6259797215461731 0.0
1.022565245628357 0.6257523894309998 0.0
[...]
POINT_DATA 348
SCALARS Psi double
LOOKUP_TABLE default
1.1662847809680232
1.0
1.0
1.166557390025964
1.1662763609515678
1.1662389001996438
1.1661595527793631
1.1661050778428403
1.1670378365585996
1.196744799329417
1.0
1.0
1.0
1.0
1.0
1.0
1.0
1.0
1.0
1.0
1.0
1.1975831542061877
1.1677350587514266
1.166575551359793
1.166513684707812
1.1665376979600648
1.1665537857201231
1.1662938249618946
1.1663007988462324
1.1662880055507985
1.166241921947941
1.1661637692540772
1.166052170308175
1.1659183976936764
1.165765585982425
1.1656143233363836
1.1654705551854323
1.165338746502034
1.1652245130457826
1.165142641702946
1.1650936859042813
1.1650698188866784
1.1650697529090248
1.1650969290137385
1.1651468224566273
1.1652064349896376
1.1652730591034297
1.1653495639218785
1.1654329032450654
1.165513167556291
1.1655899025491647
1.165668057792081
1.165745682267975
1.165813040365275
1.1658692478013974
1.1659179174419585
1.1659569086976929
1.1659771595236503
1.1659781962059934
1.165964930343225
1.1659373780901041
1.1658880208484657
1.1658147915657169
1.1657243027764774
1.1656184992998009
1.1654947491342218
1.1653553742042522
1.1652121507584106
1.1650689449129097
1.1649238277949365
1.1647791472505307
1.1646496655673124
1.1645383087859629
1.1644311114375034
1.1643589134399384
1.1643134702082816
1.1642967346013617
1.1643173592193516
1.164379947878383
1.1644843709714199
1.1646252758414866
1.1647993925619906
1.1650010547678515
1.1652239601772676
1.1654584017295013
1.165693073375625
1.1659153869859094
1.1661231071611495
1.1662945850715187
1.1664231602578718
1.166509107331211
1.1665508823016684
1.1665611435678362
1.1550251566126186
1.1553402328208733
1.1546907115004856
1.1557194452163544
1.1563572557427824
1.1554708315782283
1.1537198642548718
1.1654157476534353
1.1651481525009468
1.1592238084539277
1.1640925115929208
1.1638652453811573
1.1629013744561292
1.1628820229877692
1.1632301210116054
1.163572645543777
1.1639270577293175
1.1642149718203763
1.1639266578807597
1.1633222578207185
1.1626242951726258
1.1618496158895328
1.1664737736678146
1.166207235037971
1.1631916529691657
1.1638651678023044
1.16572363748807
1.1656266890217848
1.165453101874581
1.1650890748006868
1.1654907812980888
1.1644920336717917
1.1652817491926455
1.1649598774570686
1.1646426881806162
1.1638230656302861
1.1645187463549802
1.1649044336994185
1.1662398660064155
1.1660648333675754
1.1640291782160723
1.1598598568730565
1.159177343347104
1.1649441211683607
1.1637975692864828
1.1170330307057785
1.1653510899052186
1.1655837155778335
1.1653925727878611
1.1654941356471895
1.1648795186304748
1.1652096975290855
1.164279570881456
1.1648817313973556
1.1646301030654014
1.1647340408048958
1.1539177873054918
1.1555339572450571
1.156182813668602
1.1545200850647885
1.1569451823188488
1.1659624443079668
1.1663411179510295
1.1593795848701167
1.1614352374956094
1.166544164986295
1.1662719008150304
1.1646170349811604
1.1640238106205116
1.1036419420694807
1.165666738581041
1.1641337785119392
1.098753222252982
1.1036870912042505
1.1599386758725176
1.1602653059789134
1.161799815261694
1.161440570961145
1.1613364436812441
1.161227748385711
1.1601888809049692
1.1603683353106824
1.1601947023098553
1.160414186018713
1.1624572785486376
1.1626802819216324
1.1117342121824114
1.1327135798518515
1.133720251677318
1.12579580753081
1.1318631957847338
1.1664456963071026
1.1661572458985552
1.1662355943982308
1.166051780423457
1.135401266868393
1.1654167327794591
1.1657222011262567
1.1658572455644336
1.1658311160973822
1.1657274422446877
1.1655533422885622
1.165806935591009
1.1657144642713395
1.165011504520679
1.1652925081287049
1.1655682115760997
1.1654187829711535
1.16470658699165
1.1644189671355607
1.1651016507782697
1.1652479361277275
1.1649703465288328
1.1649218077227084
1.1651412657513702
1.1649630084182454
1.1291200793611236
1.1282032427758304
1.1658108853518292
1.1663900158101603
1.1506121008935335
1.1308779049898936
1.1485539563686684
1.1665308182816247
1.1662303287976357
1.165007682614439
1.1645943190746129
1.164183761970744
1.1643027499669996
1.1655116935924061
1.1642338987615413
1.165965952448172
1.1665294916072602
1.166338108292523
1.166176419767476
1.1662850860425247
1.165614649985768
1.165925933391661
1.165317980373238
1.1650813007032093
1.16498112205319
1.1649805627603635
1.1650817996924823
1.1643839107704828
1.1646141137538488
1.1652151905195591
1.1649072537469067
1.1653828999574958
1.1655360110211812
1.1651942975249292
1.1656927264459287
1.1658057441890965
1.1654754662014661
1.1656872708936181
1.1658850546529365
1.1658872289174715
1.1658336677689083
1.1642094200297406
1.1644649717822608
1.165269539838451
1.126473676810961
1.162872726275334
1.164630827639304
1.1649299023145305
1.1413950013855747
1.142601577770755
1.1651078971391207
1.1659693273305254
1.1662226971450118
1.1627719327013726
1.1641336018863782
1.1635717002094532
1.1229177939657995
1.1656521827622364
1.1658313392398019
1.1629236663065143
1.1641289823216854
1.164145948807643
1.1637598667020932
1.163853474955703
1.1630808308335836
1.1634990057081978
1.1625541851936403
1.163142313082218
1.163321286509835
1.163684167387899
1.164230281443115
1.1636840803213993
1.1645892133262148
1.163781522244227
1.1641674328757374
1.1611641210278094
1.1618987035586228
1.1615649331775497
1.161381452069795
1.1608365558949638
1.161053877981947
1.1600151621038293
1.160596037027228
1.1602908559288474
1.1602242903372095
1.1668017008370828
1.1676398073746963
1.1665576764077443
1.1662850388563522
1.1621119696225777
1.165153731886792
1.1651055376354789
1.1649955929175169
1.164817469146397
1.164888480557601
1.1650456726281853
1.1649943898380508
1.164506795581817
1.1643074050044315
1.1647597765943742
1.164675459724849
1.1638689474412833
1.1636747705936203
1.1644242558031024
1.1643395406414014
1.1641157625582104
1.1651475353529126
1.1641033472326772
1.1641053531697143
1.1643437507997592
1.1591115646374823
1.164834313197226
1.1642721652767547
1.1623737281676367
1.1466395170184822
1.143676049099655
1.1634713395549676
1.1661411185674917
1.1663682914682325
1.0810325348251992
1.1615878458657596
1.1660015262399293
1.1658750084440324
1.1449766980023244
1.1662639917751187
1.1665482529961222
1.1661569362842732
1.1664722042394102
1.1577469097330857
1.1579202195472822
1.1657752809422417
1.1643369587237764
1.0732643707017149
1.1626295589755102
1.1460366035851444
1.166554225197556
1.1662933939230848
1.094514594434519
1.095134005296581

SCALARS Omega double
LOOKUP_TABLE default
0.00021326279923446656
16.569463546781243
16.500316285607724
0.00020054403528888868
0.0005435872666754233
-0.006175976362877708
0.03238945673750671
-0.05662011975636601
0.06805638318869028
-0.4860378840140611
9.682197161317525
9.025928295509527
8.652974885004756
11.09773966328638
11.715978585081881
11.54757417759174
11.85930597565536
9.621183224379454
8.87374214064119
8.637530222054725
9.976186386148743
-0.43715947349379247
0.05660398794097121
-0.0532662815825674
0.03157726034657408
-0.006078917136281243
0.0005567450483519739
0.027775689120789267
0.05422209942392142
0.07870974201261827
0.10146601192500085
0.1214641123694789
0.13896685242599785
0.15365733529440673
0.1663729241073418
0.17641802715467755
0.1841200693991882
0.19058666175319602
0.19613624637355961
0.20034158218496936
0.20355524465010147
0.2066766660314904
0.20975782960967035
0.21215721033206114
0.21397319579494462
0.21586922010003876
0.21776412969243386
0.21896494710580847
0.21957380507025398
0.220377068430657
0.22130208959389822
0.22167241871854806
0.22154930761392494
0.2216945746183989
0.22203399496556503
0.2219447996867671
0.22150659241272297
0.22148504222062423
0.22177597786775335
0.22162599429219335
0.22089728120649685
0.22027105875321526
0.2199462114739428
0.21925452687152527
0.2181473874361559
0.21732045358395954
0.2168775302286806
0.2161260769563178
0.21503851987852007
0.2143407016248808
0.2141358807299202
0.21351391061993966
0.2125205836467562
0.2128953024370106
0.2122255863184272
0.21153232619659096
0.21093457455633813
0.20987064872091674
0.20806565926929085
0.2054641296248366
0.20219296674732742
0.19807537051738267
0.19285635014697639
0.1862874785240998
0.17809034649115835
0.168190892633169
0.15622926820700805
0.14088338473494277
0.12337302855259064
0.10316563478023359
0.08006506900576185
0.05516896374620437
0.02826347214085346
1.250369370358108
1.2365179540246851
1.1997876215280314
1.2295926039295075
1.2531668461187606
1.2211037331503012
1.1673675347838905
0.3079671244917803
0.3037738941982312
0.6577215987443376
0.3469771094544545
0.36823855226781455
0.3984126696417208
0.41684587285303915
0.4300440004887732
0.4345053975559707
0.4322318474312913
0.41438768424960737
0.4283724808844164
0.4234706178540189
0.4170670042738588
0.42979242823780794
0.09324189315703922
0.09156020916898139
0.3071757058715113
0.2920589635653217
0.1954350844658906
0.19700196590220842
0.27267328077776437
0.26890290681190215
0.27344638301837215
0.2647197850651004
0.27403196209672376
0.2721038892417246
0.26634798231980866
0.2715884419456445
0.2543797836795909
0.23548304272479356
0.1407600736877659
0.13839825902854128
0.24929102793070376
1.386056110240551
1.3475688506914312
0.22442574076285599
0.2544873825318284
4.380189390949634
0.20972427329924612
0.26474390154192934
0.26184800395092783
0.26467163391623694
0.25804362799204894
0.2644212439952857
0.2546224088613067
0.2610194799392809
0.2521251996459492
0.23823727921390142
1.1872074970167876
1.2234343277562825
1.2380408562610261
1.197336276930703
1.1991967381240953
0.1721774859673098
0.1765871705506685
0.630859634734857
0.531147054462533
0.04930680138191796
0.048467265735984005
0.22185162721087673
0.2362299505505194
6.191243265264575
0.18203804253752653
0.2357840930971863
5.254676219351431
5.7875102755887715
0.6526287128115651
0.6731603626648626
0.6736571141499147
0.7020077829227584
0.6687086930416064
0.691471681981482
0.6823654855068818
0.7299642041070162
0.5967092775987379
0.6774184736704394
0.6080381199201506
0.5932011556423447
5.0969959650344
3.8195909436577518
3.6138125230937947
4.161983856146975
3.7725915404937522
0.09999324412845512
0.14322154452158448
0.09828136226268665
0.14063101640964
3.563625253089826
0.19360680664196964
0.17515140194951376
0.23510319048660358
0.23500545688120233
0.23426283909360296
0.2320647783507701
0.23594676492067057
0.23545790372912173
0.22866987687232102
0.23101381812009228
0.23595407638130167
0.23443889018930375
0.2278640568173096
0.22916022424784188
0.2303040374573528
0.2335502323430147
0.22697465780925652
0.22117058966643757
0.2061441038273804
0.2153836592522803
4.050630487442854
4.258875108121683
0.36184563991756397
0.3692295356878473
1.4477300013196215
3.4002957684020005
1.5725567306222952
0.04768705927644528
0.04698409623141125
0.19973149209232663
0.2106035019976723
0.22047413835928623
0.21738325350156934
0.18124419616641896
0.2204970139575248
0.1565540847558895
0.06889958336782699
0.119255569076106
0.11744595204831633
0.06770562002481201
0.18015144426370844
0.15509029282937098
0.1957509380847297
0.20721091346855422
0.2137643558004381
0.22014211443294576
0.22393479259124402
0.2210126487651781
0.22310126115177517
0.22787780281434156
0.22344135008167634
0.22911797911785012
0.23105333966678704
0.22574651675924395
0.23080356681745298
0.2315020721698938
0.22668901608562536
0.22901342402025843
0.2305843851502906
0.23125051961100354
0.229725175019699
0.21917538732237413
0.21142963721507843
0.18989116502816308
3.7474479271438246
0.3447946581960467
0.32489148025859105
0.3047759015337475
3.655558411135156
3.734442433959246
0.2350644915611998
0.15810352080411783
0.16096269359967494
0.34112557860139514
0.30001963554493183
0.27975681451692763
3.8870421398826274
0.2078566786024362
0.2074018230203956
0.3947354567572883
0.42092971643499233
0.4184429200744824
0.4154037625108241
0.42418266255853027
0.40697184868511466
0.42094637725970163
0.39767378347175425
0.41441397256778145
0.3858266008518531
0.26315356135483486
0.5647042168752703
0.5741356840255729
0.2399109422864628
0.2616915843777536
0.25042691512746673
0.6440494410127783
0.6645963443471951
0.6851789178755258
0.696642362704385
0.6689726467745866
0.6869038126634942
0.6634479034298161
0.6956660424204575
0.6572759598649164
0.6385167603424758
0.8743273528959209
0.9056327777566762
0.023826119638262002
0.02340735445969769
0.5561279854295873
0.31094453026363783
0.31710039321335226
0.31461206671736486
0.2585267940732926
0.3085161614615047
0.3165634219290909
0.31302997181721065
0.3103590313128813
0.3037155744340066
0.317779146743989
0.3120763357031277
0.3055255610407834
0.3015301846461788
0.3145374958984046
0.3075907037854501
0.30574693916497153
0.24138282420924861
0.2954407407338942
0.2909177336557173
0.2770466496552216
0.6733040287604705
0.2015169502661175
0.21514747046327795
0.40738475599010043
2.189280916198008
2.0011340513835303
0.3060519153316523
0.11869600140569485
0.12080621178376132
7.524036702657177
0.4458951722509236
0.17043605589220207
0.16835534977826255
2.138259165441573
0.02157313085676846
0.02199354973102081
0.0975459048079202
0.09940347140106977
1.1835781556115124
1.2163409870085273
0.166555522170675
0.21745599254487782
7.787124435526784
0.37249342215026493
2.0904439735967046
0.04555484103936106
0.044768904855457536
7.925177577266727
7.95929461776182

SCALARS Vx_analytic double
LOOKUP_TABLE default
0.00021326279923446656
16.569463546781243
16.500316285607724
0.00020054403528888868
0.0005435872666754233
-0.006175976362877708
0.03238945673750671
-0.05662011975636601
0.06805638318869028
-0.4860378840140611
9.682197161317525
9.025928295509527
8.652974885004756
11.09773966328638
11.715978585081881
11.54757417759174
11.85930597565536
9.621183224379454
8.87374214064118
8.637530222054725
9.976186386148743
-0.43715947349379247
0.08338278375652397
-0.0532662815825674
0.03157726034657408
-0.006078917136281243
0.0005567450483519739
0.02777810745830485
0.05422209942392142
0.07870974201261827
0.10146601192500085
0.1214641123694789
0.13896685242599785
0.15365733529440673
0.1663729241073418
0.17641802715467755
0.1841200693991882
0.19058666175319602
0.19613624637355961
0.20034158218496936
0.20355524465010147
0.2066766660314904
0.20976301814275294
0.21216099480599548
0.2139818274784407
0.2158774984183788
0.21777520236134207
0.2189734517627756
0.21958478693444503
0.22038657785864882
0.2213131894970819
0.22168039561955247
0.22155883805288107
0.22170185387448013
0.222041757807901
0.22194824880877412
0.2215110140218632
0.22148580363356782
0.2217769011798957
0.22162599429219335
0.22089728120649685
0.22027105875321526
0.2199462114739428
0.21925452687152527
0.2181473874361559
0.21732045358395954
0.2168775302286806
0.2161260769563178
0.21503851987852007
0.2143407016248808
0.2141358807299202
0.21351391061993966
0.2125205836467562
0.2128953024370106
0.2122255863184272
0.21153232619659096
0.21093457455633813
0.2098740791370879
0.2080714795805059
0.20547667426365016
0.20220612630997692
0.19809080038477453
0.19287299353221604
0.18630701437555977
0.17810861806159647
0.1682056494212167
0.15624158861016704
0.14089692214573554
0.1233805963421932
0.10317076151209034
0.08006747908974188
0.055169493402841614
0.02826347214085346
1.2571019341571317
1.2352789195109224
1.2054565494049916
1.232523191325381
1.2523639574400278
1.2236941893634024
1.168134425063008
0.3082726137715837
0.30366710610815334
0.6585935058651562
0.34683544150425755
0.36870023451268735
0.3983238294930928
0.41707690063876457
0.4301681267051497
0.43473815160012963
0.432371819883405
0.4143553979301641
0.42816617749124664
0.4232014980338111
0.4168089578937129
0.42976611999840575
0.0932580950180442
0.09156524160587143
0.3072240627109769
0.2921797837003503
0.19552568751088722
0.19700001787538118
0.2726852585802735
0.2688660902505734
0.2735129534292377
0.26467986416350575
0.2741174901480843
0.2721996424357946
0.2664434017699895
0.2715486233344095
0.2544401305452354
0.23549451002806587
0.14079273887600272
0.1384009912941131
0.24938179464348695
1.4043816787346408
1.3412956690908588
0.22452417736462715
0.2544793788711947
4.380281493733478
0.20969430751074802
0.26476912942192243
0.26182219289475916
0.2647209600358527
0.25799329777219715
0.26449341303637297
0.2545772859355598
0.26109075282197347
0.252183525627097
0.23822952694582053
1.1876140757090088
1.225250369997614
1.2414006825236281
1.1969947881664424
1.1990441977419903
0.17186530819825419
0.17747636305324263
0.630357486422323
0.532392516639066
0.04929555641566178
0.048486042404632404
0.2219318458962388
0.23626778498189405
6.199964545706652
0.182104647749058
0.23575796357635526
5.273294681806949
5.785533937591026
0.653768478520256
0.6723617589126526
0.6742272919551034
0.7034142997810139
0.6681209655256493
0.6919019125203175
0.6826323218688269
0.7314681377800526
0.5968682778503891
0.6780790310706111
0.6071928056490806
0.5943748106160417
5.136806401500076
3.8301923408211414
3.6397686267130096
4.143828640193357
3.7722634963265076
0.09999946101947257
0.1432573255633289
0.09829126733936397
0.1406361225434157
3.5751110358395652
0.19360325805941364
0.1751488227529184
0.23511188549018544
0.23501224045947056
0.23424720465671126
0.23204779599027509
0.23597855791384348
0.2354870871020209
0.22864838913260332
0.23098984479065277
0.23600382756418303
0.23447793580607798
0.2278405617577488
0.2291354606214679
0.2303415248662883
0.23360309769554963
0.22702132945807765
0.22118937811904632
0.20613880739993698
0.2153965381109244
4.029907733447985
4.265955339441069
0.3652024973266253
0.3645267437729569
1.4539215946758886
3.392515496614834
1.5740055863015396
0.04770239377508683
0.046985953800554876
0.1997915802828085
0.2106524025924185
0.2204870067789156
0.2174141563358326
0.18131268147169913
0.22049270830798745
0.1565953928961544
0.06889789563929394
0.11926955551846988
0.11745272196609237
0.06771489815901967
0.1801499647046879
0.15509578233203886
0.19574889412974913
0.2072117962950117
0.21377029976690254
0.22015244358574043
0.2239507299417806
0.22099952249209592
0.22308649714641327
0.22789695196124166
0.22342657972718438
0.2291398367266402
0.23107165990805278
0.22572888098871746
0.2308193494758498
0.23151013927503034
0.22667611840765894
0.22900228326789882
0.23058940572174477
0.23124947462240017
0.22972132345711027
0.21917282084853762
0.21146033427180408
0.18994642512096382
3.766164967308003
0.3449536482836415
0.3247030846151825
0.30506934700295407
3.5673202778553734
3.796541025983481
0.23522003256993396
0.1581210829067437
0.1609580157788771
0.3412755284293191
0.3002963512031429
0.27974111298037474
3.8862758834294486
0.2078012407216203
0.20754766352532408
0.3948434916275876
0.4209484531057712
0.4185111002862422
0.41533765389179367
0.42426326581286455
0.4068714496490769
0.4211146796674426
0.3976728122141733
0.4145647875015399
0.38563464363199906
0.26318791822824184
0.5667777725863024
0.5731285378489184
0.24005229742373796
0.2617647317770969
0.25053993448871853
0.6450032519941034
0.6643636542405011
0.6848396579669093
0.696657734044059
0.6685669111289785
0.6867457662431027
0.6625791568617158
0.6958071550902719
0.6571629661422967
0.6383778269025014
0.8312990109583175
1.035022314899662
0.023824820518323676
0.023411773939367525
0.5557399637380505
0.31095588977317057
0.31712948651625494
0.31457287222075864
0.2584255199086616
0.3084642153937997
0.3166538040441933
0.31311130103468615
0.31025962882707
0.303631563600024
0.31789250751359716
0.3121700323568447
0.30543627612382923
0.30144367722450555
0.31466800275491025
0.30771132094885295
0.3058629814301153
0.2413295398074276
0.29549425064158197
0.29094518700773897
0.2770338214771387
0.6730474010127672
0.201556998012144
0.21515610873050328
0.4078300212530297
2.194084184840733
2.015214361532043
0.3061723209821066
0.11870840249502797
0.1208203866383581
7.561228315975583
0.4461895746070559
0.1704933151882521
0.16835101659816748
2.1431030043751895
0.021589608739693945
0.021985827396511937
0.09763406698932076
0.09933190773466864
1.1772576423671224
1.227536425618001
0.16658972976162614
0.21745050517111064
7.787942678449888
0.37246385488904143
2.0902908255195243
0.04555448541581908
0.04477223791136346
7.5792521887500035
8.302216631429395
