# vtk DataFile Version 1.0
2D Simulation C++
ASCII
DATASET UNSTRUCTURED_GRID
FIELD FieldData 1
NODES 1 2 int
348 601

POINTS 348 double
0.0 0.5 0.0
0.0 1.0 0.0
2.0 1.0 0.0
2.0 0.5 0.0
0.0 0.528801679611206 0.0
0.0 0.564507782459259 0.0
0.0 0.6110168099403381 0.0
0.0 0.6721802353858948 0.0
0.0 0.7528436183929443 0.0
0.0 0.8593378663063049 0.0
0.16666941344738007 1.0 0.0
0.3333356976509094 1.0 0.0
0.5000020265579224 1.0 0.0
0.6666678786277771 1.0 0.0
0.8333337306976318 1.0 0.0
1.0 1.0 0.0
1.1666662693023682 1.0 0.0
1.3333321809768677 1.0 0.0
1.4999979734420776 1.0 0.0
1.6666642427444458 1.0 0.0
1.8333306312561035 1.0 0.0
2.0 0.8593378663063049 0.0
2.0 0.7528436183929443 0.0
2.0 0.6721802353858948 0.0
2.0 0.6110168099403381 0.0
2.0 0.564507782459259 0.0
2.0 0.528801679611206 0.0
0.029850948601961136 0.5 0.0
0.05970168858766556 0.5 0.0
0.08955242484807968 0.5 0.0
0.1194031685590744 0.5 0.0
0.14925390481948853 0.5 0.0
0.17910465598106384 0.5 0.0
0.20895539224147797 0.5 0.0
0.2388061285018921 0.5 0.0
0.2686568796634674 0.5 0.0
0.29850760102272034 0.5 0.0
0.32835835218429565 0.5 0.0
0.35820910334587097 0.5 0.0
0.3880598247051239 0.5 0.0
0.4179105758666992 0.5 0.0
0.44776129722595215 0.5 0.0
0.47761204838752747 0.5 0.0
0.5074627995491028 0.5 0.0
0.5373135209083557 0.5 0.0
0.5671642422676086 0.5 0.0
0.5970150232315063 0.5 0.0
0.6268657445907593 0.5 0.0
0.6567164659500122 0.5 0.0
0.6865672469139099 0.5 0.0
0.7164179682731628 0.5 0.0
0.7462686896324158 0.5 0.0
0.7761194705963135 0.5 0.0
0.8059701919555664 0.5 0.0
0.8358209133148193 0.5 0.0
0.865671694278717 0.5 0.0
0.89552241563797 0.5 0.0
0.9253731369972229 0.5 0.0
0.9552239179611206 0.5 0.0
0.9850746393203735 0.5 0.0
1.0149253606796265 0.5 0.0
1.0447760820388794 0.5 0.0
1.0746268033981323 0.5 0.0
1.1044776439666748 0.5 0.0
1.1343283653259277 0.5 0.0
1.1641790866851807 0.5 0.0
1.1940298080444336 0.5 0.0
1.2238805294036865 0.5 0.0
1.2537312507629395 0.5 0.0
1.2835819721221924 0.5 0.0
1.3134328126907349 0.5 0.0
1.3432835340499878 0.5 0.0
1.3731342554092407 0.5 0.0
1.4029849767684937 0.5 0.0
1.4328356981277466 0.5 0.0
1.4626864194869995 0.5 0.0
1.492537260055542 0.5 0.0
1.522387981414795 0.5 0.0
1.5522387027740479 0.5 0.0
1.5820894241333008 0.5 0.0
1.6119401454925537 0.5 0.0
1.6417908668518066 0.5 0.0
1.6716417074203491 0.5 0.0
1.701492428779602 0.5 0.0
1.731343150138855 0.5 0.0
1.761193871498108 0.5 0.0
1.7910445928573608 0.5 0.0
1.8208953142166138 0.5 0.0
1.8507460355758667 0.5 0.0
1.8805968761444092 0.5 0.0
1.910447597503662 0.5 0.0
1.940298318862915 0.5 0.0
1.970149040222168 0.5 0.0
1.7358819246292114 0.7499510645866394 0.0
0.2656642198562622 0.7486277222633362 0.0
0.49981194734573364 0.737183690071106 0.0
0.74151611328125 0.7359843254089355 0.0
0.9774143695831299 0.7371892929077148 0.0
1.201690912246704 0.7367381453514099 0.0
1.447761058807373 0.7383390665054321 0.0
1.8591958284378052 0.6421071290969849 0.0
0.14080412685871124 0.6421071290969849 0.0
1.588537573814392 0.6783608794212341 0.0
0.2553686201572418 0.6221352219581604 0.0
1.7466964721679688 0.6278358101844788 0.0
0.38199201226234436 0.6273008584976196 0.0
0.5013589859008789 0.6272794008255005 0.0
0.6207823157310486 0.6272526383399963 0.0
0.7401852607727051 0.627252459526062 0.0
0.8595882654190063 0.6272523999214172 0.0
0.9701492786407471 0.6212864518165588 0.0
1.0807102918624878 0.6272523999214172 0.0
1.2001131772994995 0.6272523999214172 0.0
1.3195161819458008 0.6272523999214172 0.0
1.4488563537597656 0.6310953497886658 0.0
1.9247323274612427 0.5706554055213928 0.0
0.07526770234107971 0.5706554055213928 0.0
1.5377081632614136 0.5910930037498474 0.0
1.6566967964172363 0.5934624075889587 0.0
1.8074009418487549 0.5708622932434082 0.0
0.1940300166606903 0.5737577676773071 0.0
1.0286364555358887 0.5665481686592102 0.0
1.14803946018219 0.5665481686592102 0.0
0.9116620421409607 0.5665481686592102 0.0
1.2674424648284912 0.5665481686592102 0.0
0.7922590970993042 0.5665481686592102 0.0
0.6728560328483582 0.5665482878684998 0.0
0.5534531474113464 0.5665481686592102 0.0
1.3892061710357666 0.5727682709693909 0.0
0.43402159214019775 0.5665869116783142 0.0
0.3146642744541168 0.5667200088500977 0.0
1.8656742572784424 0.5607567429542542 0.0
0.1343258023262024 0.5607567429542542 0.0
1.5970147848129272 0.5642029047012329 0.0
1.8783670663833618 0.7786769866943359 0.0
0.12163297086954117 0.7786769866943359 0.0
1.7164177894592285 0.562579333782196 0.0
1.4776118993759155 0.5620538592338562 0.0
1.5857784748077393 0.867691159248352 0.0
0.25373148918151855 0.5588531494140625 0.0
0.9701492786407471 0.5582930445671082 0.0
1.0895521640777588 0.5582930445671082 0.0
0.8507462739944458 0.5582930445671082 0.0
1.20895516872406 0.5582930445671082 0.0
0.7313433289527893 0.5582930445671082 0.0
1.3283581733703613 0.5582930445671082 0.0
0.6119403839111328 0.5582930445671082 0.0
0.49253740906715393 0.5582930445671082 0.0
0.37313446402549744 0.5582956075668335 0.0
0.36864349246025085 0.7376502752304077 0.0
0.602456271648407 0.7355343103408813 0.0
0.8441241383552551 0.7366551756858826 0.0
1.3355978727340698 0.7366551160812378 0.0
1.0895521640777588 0.7378703355789185 0.0
0.07051979005336761 0.6486480832099915 0.0
1.9294801950454712 0.6486480832099915 0.0
1.5086064338684082 0.6743985414505005 0.0
1.6785967350006104 0.6649783849716187 0.0
1.9543375968933105 0.5452249050140381 0.0
0.04566239193081856 0.5452249050140381 0.0
1.6567095518112183 0.5496091842651367 0.0
1.53738272190094 0.5491842031478882 0.0
0.91306072473526 0.8965699672698975 0.0
1.7782752513885498 0.5446287989616394 0.0
1.4163299798965454 0.5447981357574463 0.0
0.4287482798099518 0.8945969939231873 0.0
1.2610714435577393 0.8950135707855225 0.0
0.4313095211982727 0.6832783222198486 0.0
0.31561949849128723 0.6858259439468384 0.0
1.029850721359253 0.6781684160232544 0.0
0.9082015752792358 0.6848641633987427 0.0
1.1492537260055542 0.6781684160232544 0.0
0.7886138558387756 0.678956151008606 0.0
1.2709345817565918 0.684736430644989 0.0
0.6685023903846741 0.6868807673454285 0.0
1.4007169008255005 0.6702371835708618 0.0
0.5483440160751343 0.6792802214622498 0.0
0.19808045029640198 0.6887137293815613 0.0
1.797759771347046 0.6853783130645752 0.0
0.6811949610710144 0.8757594227790833 0.0
1.0189321041107178 0.8474968671798706 0.0
0.7922950983047485 0.8446238040924072 0.0
1.3765455484390259 0.8590760827064514 0.0
1.1571698188781738 0.8478953838348389 0.0
1.8954496383666992 0.5359624624252319 0.0
1.8360060453414917 0.5359931588172913 0.0
0.10455036163330078 0.5359624624252319 0.0
0.16417928040027618 0.5353734493255615 0.0
0.5530290007591248 0.8422092199325562 0.0
0.2832632064819336 0.5367912650108337 0.0
0.22469767928123474 0.5394234657287598 0.0
0.9405550956726074 0.5357381105422974 0.0
0.9997434020042419 0.5357381105422974 0.0
1.0600273609161377 0.5365630984306335 0.0
1.1191463470458984 0.5357381105422974 0.0
0.8802711367607117 0.5365630984306335 0.0
0.8211521506309509 0.5357381105422974 0.0
1.2385493516921997 0.5357381105422974 0.0
1.179430365562439 0.5365630984306335 0.0
0.7608681321144104 0.5365630984306335 0.0
0.7017492055892944 0.5357381105422974 0.0
1.2988333702087402 0.5365630984306335 0.0
1.357560396194458 0.5390686392784119 0.0
0.5823462605476379 0.5357381105422974 0.0
0.6414651870727539 0.5365630984306335 0.0
0.5220622420310974 0.5365630984306335 0.0
0.4629422128200531 0.535739541053772 0.0
0.3435409665107727 0.5357455015182495 0.0
0.4026572108268738 0.5365669131278992 0.0
0.21006634831428528 0.8590372204780579 0.0
1.7943172454833984 0.8627070188522339 0.0
0.06134982034564018 0.7191494703292847 0.0
1.938650131225586 0.7191494703292847 0.0
1.634666085243225 0.7584379315376282 0.0
0.3355695903301239 0.8387951850891113 0.0
1.537941336631775 0.7633647918701172 0.0
1.9670078754425049 0.574067234992981 0.0
0.032992132008075714 0.574067234992981 0.0
1.6862140893936157 0.5314788222312927 0.0
1.6272135972976685 0.5317342281341553 0.0
1.5077245235443115 0.5309156775474548 0.0
1.5668202638626099 0.5316618084907532 0.0
1.7466963529586792 0.5298213958740234 0.0
1.4473658800125122 0.5297333002090454 0.0
1.804386019706726 0.5275400876998901 0.0
1.9283779859542847 0.5282225012779236 0.0
1.8656879663467407 0.5267112255096436 0.0
0.13432854413986206 0.5271331071853638 0.0
0.07162196189165115 0.5282225012779236 0.0
0.25373148918151855 0.527070939540863 0.0
0.19419340789318085 0.5297109484672546 0.0
0.31349387764930725 0.5272363424301147 0.0
0.37313446402549744 0.5270199179649353 0.0
0.4329495429992676 0.5274069309234619 0.0
0.49253740906715393 0.5270196795463562 0.0
0.5523557066917419 0.5274024605751038 0.0
1.3898069858551025 0.5277745127677917 0.0
1.3283581733703613 0.5270196795463562 0.0
0.6119403839111328 0.5270196795463562 0.0
1.2685397863388062 0.5274024605751038 0.0
0.6717586517333984 0.5274024605751038 0.0
0.7313433289527893 0.5270196795463562 0.0
1.20895516872406 0.5270196795463562 0.0
0.7911616563796997 0.5274024605751038 0.0
0.8507462739944458 0.5270196795463562 0.0
1.1491369009017944 0.5274024605751038 0.0
1.0895521640777588 0.5270196795463562 0.0
0.9105646014213562 0.5274024605751038 0.0
0.9701492786407471 0.5270196795463562 0.0
1.0297338962554932 0.5274024605751038 0.0
1.4776118993759155 0.5259945392608643 0.0
1.597015619277954 0.5255197882652283 0.0
1.7164177894592285 0.525999903678894 0.0
1.6834615468978882 0.8477573990821838 0.0
1.5822722911834717 0.6086509227752686 0.0
0.20459823310375214 0.6270732283592224 0.0
1.8037469387054443 0.6209055185317993 0.0
0.09990309923887253 0.8589919805526733 0.0
1.9000968933105469 0.8589919805526733 0.0
1.75603187084198 0.5789161324501038 0.0
0.10896337777376175 0.5982794761657715 0.0
1.8910366296768188 0.5982794761657715 0.0
1.4950518608093262 0.605266273021698 0.0
1.7049394845962524 0.6007562279701233 0.0
1.4387125968933105 0.5775743722915649 0.0
1.489302158355713 0.851039469242096 0.0
0.15732239186763763 0.5961292386054993 0.0
1.8436260223388672 0.5944437384605408 0.0
0.4399496018886566 0.6259797215461731 0.0
1.022565245628357 0.6257523894309998 0.0
[...]
POINT_DATA 348
SCALARS Psi double
LOOKUP_TABLE default
1.087898474505919
1.0
1.0
1.0766684692566382
1.0877880062308751
1.0875451104726956
1.0891468084440854
1.0938728055775
1.1033510760286003
1.1418217491790545
1.0
1.0
1.0
1.0
1.0
1.0
1.0
1.0
1.0
1.0
1.0
1.1342685463948639
1.0942751242409647
1.0844750354831802
1.0798819113724039
1.077714553798341
1.0768590541920222
1.087981289090207
1.0867118737203667
1.0848223047273011
1.082420799961277
1.0794798105856376
1.0760237479536174
1.0721218737328335
1.0678672938765659
1.0633834607860386
1.0587584764216078
1.054092062072819
1.0494630468909554
1.0449565223378616
1.0406243933955641
1.0364944248356236
1.0325996192880917
1.028967284469056
1.0256109400015743
1.0225183845118482
1.019694496826322
1.017138190673537
1.0148448620382102
1.0127905844151865
1.010968779186521
1.009369171562934
1.0079826246132664
1.0067887562643625
1.0057803759758304
1.0049494028548864
1.004289002796238
1.0037866646418083
1.0034382993190762
1.0032411995659951
1.0031934442639983
1.0032914481784274
1.0035346311375266
1.0039285742433688
1.0044762170590078
1.0051807818982696
1.0060462357462001
1.00708595290702
1.008306272464419
1.0097144700031628
1.011316260526927
1.0131345528458302
1.0151740580343669
1.0174309700493602
1.019934678575612
1.0226764930901482
1.0256555034855535
1.028872214843617
1.032324068251577
1.0359903891850182
1.0398395377927847
1.043833844027075
1.0479255363452376
1.0520543032562275
1.056143908295595
1.060107257991797
1.0638381740187928
1.0672402127748177
1.070204758710056
1.0726291927367726
1.0744756476862962
1.0757491274576834
1.076461344435775
1.046786711109748
1.0518854974995298
1.0201199545674668
1.005808648840525
1.0016730890732302
1.0036439487144653
1.0139159671409288
1.0733682570847198
1.0821127466395333
1.0311074484642164
1.063534310992452
1.0566896057905437
1.04255300359473
1.0268241535057545
1.015624362388416
1.0084497788026177
1.0043633587493623
1.0028457867716807
1.0030421303403585
1.0054010944040008
1.0102988518924472
1.0190457071421453
1.0762815970208344
1.0856765450456398
1.029251343432489
1.0445295116975002
1.0659083918864332
1.0740341916067144
1.0030690600136973
1.0045811566254812
1.003818930540981
1.0086117114269169
1.0070315646224728
1.0132384594371588
1.0232041804416916
1.0157540903958489
1.037486020199046
1.0554784179709242
1.0719808302860068
1.0811616401264994
1.0372069616075077
1.0782438794756335
1.0863580194891451
1.0536728172764946
1.0235734735172648
1.0130768691662633
1.0652546100949472
1.0031970524730125
1.0035798881935643
1.005165743127909
1.0063427129972868
1.0098477968555468
1.0118732770505454
1.017911442659963
1.0300947466121224
1.046479489247988
1.0356947694515575
1.0123546184430507
1.0031387426964244
1.0079927420496284
1.0019375177825478
1.090263855737428
1.0807843178728112
1.0226367967517493
1.0445797931518357
1.0766486529924666
1.0869297742305135
1.0454993564028177
1.0301804044160832
1.0004324779457145
1.0622233994945969
1.018259312227958
1.010523864373767
1.0014801910947344
1.0321300518410075
1.0494026491767936
1.0022866924228706
1.0028325832447522
1.0035487593324017
1.0056184817133802
1.0068375194662318
1.0105844966847424
1.0140169693415875
1.0195846246205806
1.0716959174673102
1.0635402041394333
1.0033690888747588
1.0005515289266018
1.001909153008119
1.004473798831791
1.0011770794818948
1.0738826786534932
1.0689326686853893
1.0837058532098658
1.0778577788647898
1.0080518454116596
1.0609556648015983
1.0698224662033156
1.003544909552877
1.0031568981133816
1.0033514355710718
1.004128349162187
1.0045480023594857
1.0061844091927716
1.0075849559331447
1.0055370177879108
1.0085721333130864
1.0117220718823785
1.010403315714881
1.0139270178227933
1.0208731770420267
1.0158334216377227
1.0270743050415643
1.034252173226318
1.0515054291938828
1.0425620823573993
1.0395567065611533
1.036211233941122
1.0980435920039124
1.0884747659977307
1.030222629367308
1.0266177484462184
1.0193764487887333
1.0777981806244363
1.0869960836179267
1.049814493464473
1.0417081050560841
1.0271153359102434
1.0339262736258132
1.0581499446394103
1.0211277923836957
1.0654241818171044
1.0754785720491162
1.071589655524785
1.0810291667557033
1.0859076136182284
1.0655604214028813
1.0740717861641
1.0562842958538787
1.0470323712778833
1.0383626599147862
1.0306044752124568
1.0238980839152612
1.0163204858116233
1.0121235364305834
1.0182792587005498
1.0089275203721781
1.0137006778721849
1.0100775781267823
1.0065003902887613
1.0073102832350664
1.005304971057275
1.0047733073656626
1.003684305508305
1.0039874088494396
1.0032948803011423
1.0031996899315203
1.0240373575828998
1.037782711153775
1.0540276655971677
1.024732127925459
1.0340237284795006
1.0720977954053772
1.0654174776673127
1.0766798885028088
1.069455570011367
1.0590427058656968
1.084187003858445
1.0751055971259442
1.0242340643880596
1.0512398238739717
1.01964704542023
1.0091319940554682
1.0790605294258195
1.0704032401573627
1.0344440063442952
1.002701771723288
1.0033116066653611
1.0039833364085755
1.00614424724041
1.0075903524984577
1.0117379897082428
1.0131967721968635
1.0208948219763407
1.0530712580073502
1.0269044500744025
1.0769456125866181
1.0853521982253407
1.0490327200726104
1.0329780828114217
1.0415769128202004
1.0531510677116227
1.0023830257252766
1.0026693188057276
1.0039418911336477
1.0050219755394474
1.0079147626328104
1.009744105847926
1.0144741786151465
1.025510829552022
1.0411378679621532
1.1079720339972992
1.099286006036077
1.0766662395483426
1.0879553704915925
1.060763065408411
1.0029734870243032
1.0032515757368854
1.0031706622359369
1.06122093134936
1.0037527086784617
1.004377022242905
1.0056003462581156
1.005364279887041
1.0069008653554932
1.0083446693184104
1.0107080771129588
1.0101583380857009
1.0127990591731153
1.0154620518406463
1.0192794234283074
1.026546538835541
1.0680748969585943
1.0320716499156903
1.0420100803880308
1.0488854790191866
1.017436272664008
1.0457873258268315
1.0304818268431852
1.0386471657761405
1.0014570165754404
1.0217583110289161
1.038965910382207
1.0837777927920296
1.0744046642618963
1.0002569121773368
1.0282062276242916
1.0692428658326385
1.0781093475385566
1.0039401956853704
1.0875215093190762
1.0771331067684806
1.0872136409914472
1.0783251134840586
1.0690638753648478
1.0624278431759804
1.0620060165734488
1.0185975169905461
1.0010538007721423
1.0163453081958267
1.0065916817527132
1.076190835787409
1.087210488862868
1.0528187222834893
1.0469710938931722

SCALARS Omega double
LOOKUP_TABLE default
4.100276591396284
-10.327730795436054
-14.268649563397696
0.13217857057086146
4.492515426470049
-2.6837945533082195
-4.473557660634648
3.5422922230913994
1.031478153519548
20.84264546033729
-8.18867520115404
-0.40947252232512754
-0.8985275653939347
-0.2342139594275771
-0.11369097867132281
-0.0306121111901497
-0.11116900932414424
-0.18643504131186567
-0.6569892800265309
-0.611033925692299
-6.115745385050895
17.94367058510953
3.5124636782393805
-1.0379081270119976
0.14534828365034394
0.033512257696057944
-0.32203140248107126
2.111361729826048
1.091836779170508
0.7143021740897502
0.5849518485731363
0.532723942493029
0.5070780229781375
0.47819019534535845
0.4415368869510982
0.3974117805670957
0.3477326855174203
0.29624639566452715
0.24497892024276102
0.19618313349197558
0.15080900292461077
0.10952048225670387
0.07261347350639767
0.040333453579129444
0.012569702993090364
-0.011155351329580563
-0.031081819755352024
-0.047524590627111195
-0.06081139786220659
-0.07154132509423397
-0.08001355261642124
-0.08658310712086936
-0.09151389784999125
-0.09520530149861368
-0.09785149337483384
-0.099673003251992
-0.10081314043691036
-0.10146383312963546
-0.10170958672119844
-0.10162686877437914
-0.10124796093657501
-0.10059290948862994
-0.0996482927435637
-0.0983430316658445
-0.09661228012447456
-0.09434272394968207
-0.09142625853744873
-0.08763222668431023
-0.0827984310741298
-0.07668844523080161
-0.06909527064199868
-0.0595473172910317
-0.0478029032499654
-0.03366497388546145
-0.016472751712207082
0.003910499114036374
0.027743081704727737
0.05530912053745372
0.0867769333804685
0.12203690492203924
0.16057613136083024
0.2016896050434663
0.244013505780804
0.2859350888697151
0.32478694600392677
0.3576013700931329
0.37954715493400765
0.3852480049243179
0.3706556219671217
0.3300023908604077
0.2610341029397621
0.16510919313832118
0.06635078647402506
0.3151066787097472
0.3393627792575591
-0.11646412749211617
-0.13091185667442257
-0.10570544244128162
-0.11366535237417619
-0.12385496956468303
0.717832807596942
0.8448250621504818
0.0469193001148686
0.4698816282080061
0.4081247471793358
0.1669496075582864
0.0028975471754263734
-0.07395212630508446
-0.10007944145244407
-0.10519634428525133
-0.1038554859555581
-0.10230780758084577
-0.09843631749301152
-0.08460653283898312
-0.04068562454058437
0.30650981069094746
0.09488991775567414
0.051862508429750834
0.21730105434217709
0.43991741008694274
0.5280590909253154
-0.10168073739803847
-0.09715105264443132
-0.10234065547099572
-0.08372762102510585
-0.09659159909591858
-0.07320444395687951
-0.011171932718890568
-0.048931336381646366
0.11627850663337719
0.3207472807165973
0.40938443047297385
0.49085197054212554
0.1335210953494156
2.2490601200616314
2.5274009286828383
0.31560108615765003
0.00724417673327508
-0.3187831354448751
0.43428948388202526
-0.10231092622108202
-0.0998169280640524
-0.10036161191588536
-0.09157790155477918
-0.08711259275202479
-0.06873062135340809
-0.04655457285694838
0.046334058929397
0.21351020278404012
0.04064205045433778
-0.143443166393888
-0.11680355787946356
-0.12342029435511753
-0.10619346693417102
0.967627232860958
0.5747828401965918
-0.031028869523733484
0.23799457140299138
0.14049951445123704
0.45038740922775916
0.22190937382062262
0.06523625353621709
-0.09857906644495489
0.38752322420550295
-0.03006943443440871
-0.41888398810739147
-0.1508136577813706
0.03255470394298931
0.27537492140949976
-0.10461616328969217
-0.10807518480278272
-0.10488149130466307
-0.11268902260608647
-0.10497213967851537
-0.11310599821853232
-0.08190653120131278
-0.07324263405403386
0.8361155033640408
0.6923071888276335
-0.2008834015344555
-0.09796264604997171
-0.14249513301137873
-0.20891313998482391
-0.1146443076069919
0.32160350023327766
0.3990826750052717
0.5432661528300491
0.5181516061358938
-0.3016400703848604
0.37625886709556655
0.46768784739585
-0.10188407620135882
-0.1016707034968592
-0.1003842107955568
-0.09788440007488963
-0.10072930314615859
-0.09731626898273475
-0.08620622829729005
-0.09350530320948652
-0.09023276549148734
-0.07756313163717929
-0.07426981170367751
-0.056273975081850586
-0.024308275533480538
-0.05649859200342201
0.02302009819072747
0.08697762293821996
0.26890621586201835
0.17062922353080226
-0.6191909294917571
-0.5147470841169043
2.3294452251187834
1.9777754326562262
-0.011509735355366521
-0.23816940700229364
-0.12062838988453116
0.1669067765734991
-1.0217322041322583
0.26552628033285947
0.18017280045768824
0.03920614717657039
0.10148348527303491
0.3466251469721032
-0.0085666689698559
0.3920916325695679
0.2186064418606204
0.3652351841191565
0.5338230402323295
0.7124939981821546
0.42341547286754644
0.4972714401490146
0.3222716188816148
0.21880357136845704
0.12752218731498888
0.053812359521176155
-0.0016606519172498132
-0.0414276504456434
-0.06554031119322969
-0.041222420552528706
-0.08056138243522386
-0.06760899316181936
-0.08431587013586872
-0.09007820841111905
-0.09403104486061246
-0.09919241075173194
-0.09582606824290552
-0.09921886260678184
-0.1013961046772665
-0.10184407580574642
-0.10108332295890882
0.013962250849883152
0.13979943912239884
0.30760252635708085
-0.2638912731573773
0.09725913339108215
0.6218180596335284
0.533779865187035
2.90399537780167
2.1556482072658927
0.3856460207454044
0.4315959595357092
0.4734073822375798
0.00516175800436065
0.306237062543182
-0.024410384897525127
-0.2810106959149768
0.5921227818732515
0.5085895250221621
0.07552629316157432
-0.10322296887730872
-0.10472893921779172
-0.10082993819186145
-0.10385718316140449
-0.09299651549748968
-0.08998797085806444
-0.07147385155956781
-0.04182883895740313
0.3101615018917657
0.03413599037442332
1.252325461261775
1.4785748227904925
0.2651621003446798
0.09036934035609433
0.18033095470583646
0.41361737900017614
-0.10537196689889042
-0.1043347552859191
-0.11016426596226202
-0.10444550632402705
-0.11200116001572932
-0.09772746947776992
-0.09915262606973825
-0.028490043251688166
0.14423106337711886
5.598342302591942
5.403331021629128
-0.012855761300124731
2.0975690307110155
0.4888528703124108
-0.10265928973091609
-0.10312383634480093
-0.10135194605797862
0.40199689968103797
-0.09983805538478284
-0.10270297647367747
-0.10100566888394931
-0.09587048404946408
-0.09124247914476062
-0.09487819303127773
-0.08672286982800242
-0.07944071603574013
-0.06713690872751385
-0.06531830849044627
-0.04228617850092604
0.010999425356938292
0.48867830817111285
0.06039491839183046
0.16287202191328062
0.2437090018556942
-0.06902117037216661
0.22262509022678964
0.0693833280335245
0.14914127614684353
-0.10985028243037599
-0.16829937846685863
0.15224910600439998
0.3821709177778623
0.3751898652400943
-0.08900149604136179
0.032410881777235674
0.4400053669957067
0.5321896093696559
-0.1340929809048947
0.46689768371820173
0.011219789280873034
-0.5101373601020371
0.34085160636943457
1.0203185730901547
0.9271598518391031
0.3733238666502367
-0.026222501830745586
-0.17256911002192288
-0.05296720420535718
-0.1661729546622673
0.11856080318456803
1.2482118262424637
0.5729328676154379
-1.2167721124874256

SCALARS Vx_analytic double
LOOKUP_TABLE default
4.100276591396284
-10.327730795436054
-14.268649563397696
0.1321063796464511
4.492515426470049
-2.6837945533082195
-4.473557660634648
3.5422922230913994
1.031478153519548
20.84264546033729
-8.18867520115404
-0.40947252232512754
-0.8985275653939347
-0.2342139594275771
-0.11369097867132281
-0.0306121111901497
-0.11116900932414424
-0.18643504131186567
-0.6569892800265307
-0.611033925692299
-6.115745385050895
17.94367058510953
3.5132646958976688
-1.015770522164483
0.14755553987798473
0.034519698997507314
-0.3200761990913625
2.111361729826048
1.091836779170508
0.7143021740897502
0.5849518485731363
0.532723942493029
0.5070780229781375
0.47819019534535845
0.4415368869510982
0.3974117805670957
0.3477326855174203
0.29624639566452715
0.24497892024276102
0.19618313349197558
0.15080900292461077
0.10952048225670387
0.07261347350639767
0.040333453579129444
0.012569702993090364
-0.011155351329580563
-0.031081819755352024
-0.047524590627111195
-0.06081139786220659
-0.07154132509423397
-0.08001355261642124
-0.08658310712086936
-0.09151389784999125
-0.09520530149861368
-0.09785149337483384
-0.099673003251992
-0.10081314043691036
-0.10146383312963546
-0.10170958672119844
-0.10162686877437914
-0.10124782765054807
-0.10059294204194483
-0.09964845504937855
-0.09834350190109802
-0.09661312131879343
-0.09434451871860462
-0.091428618704583
-0.08763597043768713
-0.08280334278890614
-0.07669661379637577
-0.06910496134825173
-0.05956144851390778
-0.04782298754005625
-0.03367246039641772
-0.016485391452378456
0.003888409509778684
0.027721518384712943
0.05529747411442689
0.08676827989982296
0.12202034388195912
0.1605745305573867
0.20170954643102681
0.24406643450330384
0.28600158380064095
0.3248965446907475
0.3577128693744758
0.379727856929163
0.38560071590674955
0.371028316067001
0.3304074131022282
0.26136830543619527
0.1653518506055986
0.06630766750186853
0.3072890282179676
0.3371706145209262
-0.11573714656013001
-0.1307994394801248
-0.10570535512391122
-0.1137278022994844
-0.12456353024137559
0.7269997387825285
0.8347617254271176
0.04600727050653628
0.4679910115474732
0.41050734696058805
0.1669214628910014
0.003136668823907115
-0.07378379845270344
-0.10001567391902955
-0.10518127231498788
-0.10385296486821846
-0.10231052803076424
-0.09846832164148564
-0.08473012843988371
-0.04101671792383564
0.3086317366366468
0.10164156815115932
0.051537871129860136
0.21754434337177786
0.44228040793497503
0.527041471254406
-0.10168036655234276
-0.0971593232265981
-0.10233728464411308
-0.08377000668667312
-0.09657556248297999
-0.07315791420021656
-0.011102327663134971
-0.049075079329422795
0.11625277765605123
0.32025822989122366
0.41159595865388515
0.49215553312086874
0.133406771815812
2.256243746621583
2.4658842148376934
0.316201044782527
0.007045941752139499
-0.3199528326109664
0.4335301034134843
-0.10230954769969886
-0.09981884026471785
-0.10035371804727149
-0.09159326976904167
-0.08708221543359378
-0.06878611534530342
-0.04648330343857546
0.046411186946962155
0.21338885459220577
0.04151052174497683
-0.14299730792783494
-0.11677288635863328
-0.12376119510985333
-0.10620445994408544
0.8926160215205313
0.5831067609988391
-0.0317827546946116
0.2379372067213877
0.14188665745951246
0.459226106106783
0.22203848098080756
0.06507796699727568
-0.09857956794857596
0.3884750777202099
-0.030156942438429608
-0.4175139088450162
-0.1508969166740835
0.0328330748949167
0.27463727441335306
-0.10461649295414631
-0.10806434632248768
-0.10490610193156474
-0.11263371909575036
-0.1050894835364976
-0.11291175052286874
-0.08229300621660127
-0.07287632478518297
0.8282370826629023
0.6979119990900329
-0.20066822435962564
-0.09797116703088678
-0.14243482955311743
-0.2098549195346805
-0.11468425977836975
0.32291998604907496
0.4004661603598331
0.5455847679291912
0.5182087427677666
-0.30079309657105685
0.3759623336509351
0.46729198944468203
-0.10188333045338784
-0.10167020731102759
-0.10038502890796147
-0.09788823854675308
-0.10072764797373711
-0.09731253721590957
-0.086229015412563
-0.09351735548254875
-0.0902264106629845
-0.07755275575138917
-0.07432039420404156
-0.05635099744409671
-0.024297351235117146
-0.05648791947704053
0.023012124120606447
0.08694559797827932
0.26873183033779835
0.17053225418634735
-0.6002055555256449
-0.5404004018209079
2.3324891610305274
1.9952133237033038
-0.014257358255224551
-0.2352658413395892
-0.1219607855521238
0.1688958090963012
-1.006428528816406
0.2657657157797424
0.18013718698292924
0.039050865948651106
0.10135564260066127
0.3473621975744737
-0.008684319444192777
0.393282396353192
0.21971500681162537
0.36633678585632157
0.5347506766809358
0.7167242441776936
0.42311179378164093
0.4970539901841851
0.3221079645654275
0.21875178329698935
0.1275192138171502
0.05384393201624654
-0.0016322894206617785
-0.04151191155064483
-0.06558852477114993
-0.041193178599953646
-0.08058918605330596
-0.06759113277234557
-0.08430334731521603
-0.09009150162918242
-0.09402489191072816
-0.09918920923254458
-0.09583184572164707
-0.09922064608284689
-0.10139490965510041
-0.10184361020514793
-0.10108341549804348
0.013839356920071953
0.13970756573243434
0.30797848305188397
-0.26982869697735384
0.0968745054046457
0.6181302600909434
0.5377275131524613
2.803641245253307
1.988321001378365
0.38716987918862933
0.4280201239664878
0.4775215942838206
0.0047806028701611915
0.30695853228078496
-0.024649601427367083
-0.28242466287451223
0.5891893005315116
0.5124021151990923
0.07569952319076158
-0.103222460356335
-0.10472312727565397
-0.10084273201007107
-0.10382419512380249
-0.09306743180288209
-0.08988417115472593
-0.07166214313221043
-0.04160908275382259
0.30944238264525104
0.03395512403854173
1.265000153519122
1.4602339633011756
0.265593952156488
0.0901905006483501
0.18038623593960068
0.41485591046485676
-0.10536896235447345
-0.10433930005249699
-0.11013665881848923
-0.10448760294827708
-0.11189194719586211
-0.09790551172982408
-0.09883423321628533
-0.0280312050362559
0.14415472576217428
5.320999423523923
5.209113620693731
-0.012093327464062375
2.09400446110227
0.4859303617038343
-0.1026578214573087
-0.10312143453262074
-0.10135356154035388
0.40109114383528227
-0.09984342184097975
-0.10269515363957486
-0.10099102635380855
-0.09589104254706005
-0.09127527610624847
-0.09484443757977096
-0.0866706052109206
-0.0795230526677246
-0.06724861035058288
-0.06522696170435763
-0.042173116022287446
0.011130154359658122
0.48724962629617175
0.06049584216775803
0.16281780513829774
0.24343739591994182
-0.06948058667620231
0.222663435417566
0.06925833770225413