# vtk DataFile Version 1.0
2D Simulation C++
ASCII
DATASET UNSTRUCTURED_GRID
FIELD FieldData 1
NODES 1 2 int
348 601

POINTS 348 double
0.0 0.5 0.0
0.0 1.0 0.0
2.0 1.0 0.0
2.0 0.5 0.0
0.0 0.528801679611206 0.0
0.0 0.564507782459259 0.0
0.0 0.6110168099403381 0.0
0.0 0.6721802353858948 0.0
0.0 0.7528436183929443 0.0
0.0 0.8593378663063049 0.0
0.16666941344738007 1.0 0.0
0.3333356976509094 1.0 0.0
0.5000020265579224 1.0 0.0
0.6666678786277771 1.0 0.0
0.8333337306976318 1.0 0.0
1.0 1.0 0.0
1.1666662693023682 1.0 0.0
1.3333321809768677 1.0 0.0
1.4999979734420776 1.0 0.0
1.6666642427444458 1.0 0.0
1.8333306312561035 1.0 0.0
2.0 0.8593378663063049 0.0
2.0 0.7528436183929443 0.0
2.0 0.6721802353858948 0.0
2.0 0.6110168099403381 0.0
2.0 0.564507782459259 0.0
2.0 0.528801679611206 0.0
0.029850948601961136 0.5 0.0
0.05970168858766556 0.5 0.0
0.08955242484807968 0.5 0.0
0.1194031685590744 0.5 0.0
0.14925390481948853 0.5 0.0
0.17910465598106384 0.5 0.0
0.20895539224147797 0.5 0.0
0.2388061285018921 0.5 0.0
0.2686568796634674 0.5 0.0
0.29850760102272034 0.5 0.0
0.32835835218429565 0.5 0.0
0.35820910334587097 0.5 0.0
0.3880598247051239 0.5 0.0
0.4179105758666992 0.5 0.0
0.44776129722595215 0.5 0.0
0.47761204838752747 0.5 0.0
0.5074627995491028 0.5 0.0
0.5373135209083557 0.5 0.0
0.5671642422676086 0.5 0.0
0.5970150232315063 0.5 0.0
0.6268657445907593 0.5 0.0
0.6567164659500122 0.5 0.0
0.6865672469139099 0.5 0.0
0.7164179682731628 0.5 0.0
0.7462686896324158 0.5 0.0
0.7761194705963135 0.5 0.0
0.8059701919555664 0.5 0.0
0.8358209133148193 0.5 0.0
0.865671694278717 0.5 0.0
0.89552241563797 0.5 0.0
0.9253731369972229 0.5 0.0
0.9552239179611206 0.5 0.0
0.9850746393203735 0.5 0.0
1.0149253606796265 0.5 0.0
1.0447760820388794 0.5 0.0
1.0746268033981323 0.5 0.0
1.1044776439666748 0.5 0.0
1.1343283653259277 0.5 0.0
1.1641790866851807 0.5 0.0
1.1940298080444336 0.5 0.0
1.2238805294036865 0.5 0.0
1.2537312507629395 0.5 0.0
1.2835819721221924 0.5 0.0
1.3134328126907349 0.5 0.0
1.3432835340499878 0.5 0.0
1.3731342554092407 0.5 0.0
1.4029849767684937 0.5 0.0
1.4328356981277466 0.5 0.0
1.4626864194869995 0.5 0.0
1.492537260055542 0.5 0.0
1.522387981414795 0.5 0.0
1.5522387027740479 0.5 0.0
1.5820894241333008 0.5 0.0
1.6119401454925537 0.5 0.0
1.6417908668518066 0.5 0.0
1.6716417074203491 0.5 0.0
1.701492428779602 0.5 0.0
1.731343150138855 0.5 0.0
1.761193871498108 0.5 0.0
1.7910445928573608 0.5 0.0
1.8208953142166138 0.5 0.0
1.8507460355758667 0.5 0.0
1.8805968761444092 0.5 0.0
1.910447597503662 0.5 0.0
1.940298318862915 0.5 0.0
1.970149040222168 0.5 0.0
1.7358819246292114 0.7499510645866394 0.0
0.2656642198562622 0.7486277222633362 0.0
0.49981194734573364 0.737183690071106 0.0
0.74151611328125 0.7359843254089355 0.0
0.9774143695831299 0.7371892929077148 0.0
1.201690912246704 0.7367381453514099 0.0
1.447761058807373 0.7383390665054321 0.0
1.8591958284378052 0.6421071290969849 0.0
0.14080412685871124 0.6421071290969849 0.0
1.588537573814392 0.6783608794212341 0.0
0.2553686201572418 0.6221352219581604 0.0
1.7466964721679688 0.6278358101844788 0.0
0.38199201226234436 0.6273008584976196 0.0
0.5013589859008789 0.6272794008255005 0.0
0.6207823157310486 0.6272526383399963 0.0
0.7401852607727051 0.627252459526062 0.0
0.8595882654190063 0.6272523999214172 0.0
0.9701492786407471 0.6212864518165588 0.0
1.0807102918624878 0.6272523999214172 0.0
1.2001131772994995 0.6272523999214172 0.0
1.3195161819458008 0.6272523999214172 0.0
1.4488563537597656 0.6310953497886658 0.0
1.9247323274612427 0.5706554055213928 0.0
0.07526770234107971 0.5706554055213928 0.0
1.5377081632614136 0.5910930037498474 0.0
1.6566967964172363 0.5934624075889587 0.0
1.8074009418487549 0.5708622932434082 0.0
0.1940300166606903 0.5737577676773071 0.0
1.0286364555358887 0.5665481686592102 0.0
1.14803946018219 0.5665481686592102 0.0
0.9116620421409607 0.5665481686592102 0.0
1.2674424648284912 0.5665481686592102 0.0
0.7922590970993042 0.5665481686592102 0.0
0.6728560328483582 0.5665482878684998 0.0
0.5534531474113464 0.5665481686592102 0.0
1.3892061710357666 0.5727682709693909 0.0
0.43402159214019775 0.5665869116783142 0.0
0.3146642744541168 0.5667200088500977 0.0
1.8656742572784424 0.5607567429542542 0.0
0.1343258023262024 0.5607567429542542 0.0
1.5970147848129272 0.5642029047012329 0.0
1.8783670663833618 0.7786769866943359 0.0
0.12163297086954117 0.7786769866943359 0.0
1.7164177894592285 0.562579333782196 0.0
1.4776118993759155 0.5620538592338562 0.0
1.5857784748077393 0.867691159248352 0.0
0.25373148918151855 0.5588531494140625 0.0
0.9701492786407471 0.5582930445671082 0.0
1.0895521640777588 0.5582930445671082 0.0
0.8507462739944458 0.5582930445671082 0.0
1.20895516872406 0.5582930445671082 0.0
0.7313433289527893 0.5582930445671082 0.0
1.3283581733703613 0.5582930445671082 0.0
0.6119403839111328 0.5582930445671082 0.0
0.49253740906715393 0.5582930445671082 0.0
0.37313446402549744 0.5582956075668335 0.0
0.36864349246025085 0.7376502752304077 0.0
0.602456271648407 0.7355343103408813 0.0
0.8441241383552551 0.7366551756858826 0.0
1.3355978727340698 0.7366551160812378 0.0
1.0895521640777588 0.7378703355789185 0.0
0.07051979005336761 0.6486480832099915 0.0
1.9294801950454712 0.6486480832099915 0.0
1.5086064338684082 0.6743985414505005 0.0
1.6785967350006104 0.6649783849716187 0.0
1.9543375968933105 0.5452249050140381 0.0
0.04566239193081856 0.5452249050140381 0.0
1.6567095518112183 0.5496091842651367 0.0
1.53738272190094 0.5491842031478882 0.0
0.91306072473526 0.8965699672698975 0.0
1.7782752513885498 0.5446287989616394 0.0
1.4163299798965454 0.5447981357574463 0.0
0.4287482798099518 0.8945969939231873 0.0
1.2610714435577393 0.8950135707855225 0.0
0.4313095211982727 0.6832783222198486 0.0
0.31561949849128723 0.6858259439468384 0.0
1.029850721359253 0.6781684160232544 0.0
0.9082015752792358 0.6848641633987427 0.0
1.1492537260055542 0.6781684160232544 0.0
0.7886138558387756 0.678956151008606 0.0
1.2709345817565918 0.684736430644989 0.0
0.6685023903846741 0.6868807673454285 0.0
1.4007169008255005 0.6702371835708618 0.0
0.5483440160751343 0.6792802214622498 0.0
0.19808045029640198 0.6887137293815613 0.0
1.797759771347046 0.6853783130645752 0.0
0.6811949610710144 0.8757594227790833 0.0
1.0189321041107178 0.8474968671798706 0.0
0.7922950983047485 0.8446238040924072 0.0
1.3765455484390259 0.8590760827064514 0.0
1.1571698188781738 0.8478953838348389 0.0
1.8954496383666992 0.5359624624252319 0.0
1.8360060453414917 0.5359931588172913 0.0
0.10455036163330078 0.5359624624252319 0.0
0.16417928040027618 0.5353734493255615 0.0
0.5530290007591248 0.8422092199325562 0.0
0.2832632064819336 0.5367912650108337 0.0
0.22469767928123474 0.5394234657287598 0.0
0.9405550956726074 0.5357381105422974 0.0
0.9997434020042419 0.5357381105422974 0.0
1.0600273609161377 0.5365630984306335 0.0
1.1191463470458984 0.5357381105422974 0.0
0.8802711367607117 0.5365630984306335 0.0
0.8211521506309509 0.5357381105422974 0.0
1.2385493516921997 0.5357381105422974 0.0
1.179430365562439 0.5365630984306335 0.0
0.7608681321144104 0.5365630984306335 0.0
0.7017492055892944 0.5357381105422974 0.0
1.2988333702087402 0.5365630984306335 0.0
1.357560396194458 0.5390686392784119 0.0
0.5823462605476379 0.5357381105422974 0.0
0.6414651870727539 0.5365630984306335 0.0
0.5220622420310974 0.5365630984306335 0.0
0.4629422128200531 0.535739541053772 0.0
0.3435409665107727 0.5357455015182495 0.0
0.4026572108268738 0.5365669131278992 0.0
0.21006634831428528 0.8590372204780579 0.0
1.7943172454833984 0.8627070188522339 0.0
0.06134982034564018 0.7191494703292847 0.0
1.938650131225586 0.7191494703292847 0.0
1.634666085243225 0.7584379315376282 0.0
0.3355695903301239 0.8387951850891113 0.0
1.537941336631775 0.7633647918701172 0.0
1.9670078754425049 0.574067234992981 0.0
0.032992132008075714 0.574067234992981 0.0
1.6862140893936157 0.5314788222312927 0.0
1.6272135972976685 0.5317342281341553 0.0
1.5077245235443115 0.5309156775474548 0.0
1.5668202638626099 0.5316618084907532 0.0
1.7466963529586792 0.5298213958740234 0.0
1.4473658800125122 0.5297333002090454 0.0
1.804386019706726 0.5275400876998901 0.0
1.9283779859542847 0.5282225012779236 0.0
1.8656879663467407 0.5267112255096436 0.0
0.13432854413986206 0.5271331071853638 0.0
0.07162196189165115 0.5282225012779236 0.0
0.25373148918151855 0.527070939540863 0.0
0.19419340789318085 0.5297109484672546 0.0
0.31349387764930725 0.5272363424301147 0.0
0.37313446402549744 0.5270199179649353 0.0
0.4329495429992676 0.5274069309234619 0.0
0.49253740906715393 0.5270196795463562 0.0
0.5523557066917419 0.5274024605751038 0.0
1.3898069858551025 0.5277745127677917 0.0
1.3283581733703613 0.5270196795463562 0.0
0.6119403839111328 0.5270196795463562 0.0
1.2685397863388062 0.5274024605751038 0.0
0.6717586517333984 0.5274024605751038 0.0
0.7313433289527893 0.5270196795463562 0.0
1.20895516872406 0.5270196795463562 0.0
0.7911616563796997 0.5274024605751038 0.0
0.8507462739944458 0.5270196795463562 0.0
1.1491369009017944 0.5274024605751038 0.0
1.0895521640777588 0.5270196795463562 0.0
0.9105646014213562 0.5274024605751038 0.0
0.9701492786407471 0.5270196795463562 0.0
1.0297338962554932 0.5274024605751038 0.0
1.4776118993759155 0.5259945392608643 0.0
1.597015619277954 0.5255197882652283 0.0
1.7164177894592285 0.525999903678894 0.0
1.6834615468978882 0.8477573990821838 0.0
1.5822722911834717 0.6086509227752686 0.0
0.20459823310375214 0.6270732283592224 0.0
1.8037469387054443 0.6209055185317993 0.0
0.09990309923887253 0.8589919805526733 0.0
1.9000968933105469 0.8589919805526733 0.0
1.75603187084198 0.5789161324501038 0.0
0.10896337777376175 0.5982794761657715 0.0
1.8910366296768188 0.5982794761657715 0.0
1.4950518608093262 0.605266273021698 0.0
1.7049394845962524 0.6007562279701233 0.0
1.4387125968933105 0.5775743722915649 0.0
1.489302158355713 0.851039469242096 0.0
0.15732239186763763 0.5961292386054993 0.0
1.8436260223388672 0.5944437384605408 0.0
0.4399496018886566 0.6259797215461731 0.0
1.022565245628357 0.6257523894309998 0.0
[...]
POINT_DATA 348
SCALARS Psi double
LOOKUP_TABLE default
1.0878984745060136
1.0
1.0
1.0766684692567796
1.0877880062309688
1.0875451104727873
1.089146808444172
1.0938728055775757
1.1033510760286556
1.141821749179081
1.0
1.0
1.0
1.0
1.0
1.0
1.0
1.0
1.0
1.0
1.0
1.134268546394895
1.0942751242410373
1.0844750354832853
1.0798819113725289
1.077714553798477
1.0768590541921628
1.087981289090302
1.0867118737204657
1.0848223047274073
1.0824207999613933
1.0794798105857661
1.076023747953761
1.0721218737329947
1.0678672938767464
1.063383460786241
1.058758476421834
1.0540920620730703
1.0494630468912334
1.0449565223381676
1.0406243933958994
1.0364944248359886
1.0325996192884868
1.0289672844694813
1.025610940002029
1.0225183845123318
1.0196944968268338
1.0171381906740762
1.0148448620387753
1.012790584415776
1.0109687791871322
1.0093691715635653
1.0079826246139156
1.006788756265027
1.0057803759765076
1.0049494028555739
1.004289002796933
1.003786664642508
1.0034382993197775
1.0032411995666952
1.0031934442646948
1.003291448179117
1.003534631138207
1.0039285742440374
1.0044762170596622
1.0051807818989076
1.0060462357468196
1.0070859529076195
1.0083062724649967
1.009714470003718
1.011316260527458
1.013134552846336
1.0151740580348472
1.0174309700498143
1.0199346785760401
1.0226764930905505
1.0256555034859296
1.028872214843968
1.0323240682519037
1.035990389185322
1.0398395377930665
1.043833844027336
1.0479255363454798
1.052054303256452
1.0561439082958035
1.060107257991991
1.063838174018974
1.0672402127749883
1.0702047587102173
1.0726291927369267
1.074475647686445
1.0757491274578284
1.0764613444359175
1.0467867111098474
1.05188549749963
1.0201199545676964
1.0058086488408773
1.001673089073622
1.0036439487148066
1.0139159671411522
1.0733682570848488
1.0821127466396356
1.0311074484644296
1.063534310992617
1.0566896057907122
1.042553003594985
1.0268241535061113
1.0156243623888714
1.0084497788031537
1.0043633587499492
1.0028457867722886
1.0030421303409383
1.005401094404526
1.0102988518928944
1.0190457071424928
1.076281597020974
1.0856765450457384
1.0292513434328006
1.0445295116977302
1.0659083918865997
1.0740341916068588
1.0030690600143624
1.0045811566261016
1.00381893054165
1.0086117114274602
1.0070315646231032
1.0132384594377126
1.0232041804421421
1.0157540903962914
1.037486020199382
1.0554784179711534
1.0719808302861582
1.0811616401266173
1.0372069616077881
1.078243879475697
1.0863580194891969
1.053672817276702
1.0235734735176394
1.0130768691663121
1.0652546100951317
1.00319705247369
1.0035798881942162
1.0051657431285685
1.0063427129978757
1.009847796856147
1.0118732770510457
1.0179114426604705
1.030094746612518
1.0464794892482698
1.0356947694517131
1.012354618443339
1.0031387426968055
1.0079927420499082
1.001937517782922
1.0902638557375117
1.0807843178729277
1.0226367967520134
1.044579793152014
1.0766486529926074
1.086929774230609
1.0454993564030628
1.0301804044164138
1.0004324779458034
1.0622233994947792
1.0182593122283914
1.0105238643738104
1.001480191094804
1.0321300518412548
1.049402649176961
1.002286692423377
1.0028325832452503
1.0035487593328725
1.0056184817138578
1.006837519466631
1.0105844966851478
1.014016969341926
1.019584624620917
1.071695917467417
1.0635402041395567
1.0033690888748585
1.000551528926763
1.001909153008275
1.004473798831878
1.0011770794820403
1.0738826786536424
1.0689326686855527
1.0837058532099755
1.077857778864924
1.0080518454117682
1.0609556648018093
1.069822466203484
1.00354490955357
1.0031568981140724
1.003351435571749
1.0041283491628414
1.0045480023601692
1.0061844091934353
1.0075849559337269
1.0055370177885323
1.0085721333137192
1.011722071882972
1.010403315715417
1.0139270178232798
1.020873177042519
1.015833421638268
1.0270743050419984
1.0342521732266936
1.0515054291941446
1.0425620823577157
1.0395567065611824
1.0362112339411509
1.098043592003978
1.0884747659978184
1.0302226293674321
1.02661774844628
1.0193764487888883
1.0777981806245713
1.0869960836180181
1.049814493464704
1.0417081050563524
1.0271153359106033
1.0339262736261257
1.0581499446396092
1.0211277923841078
1.0654241818172792
1.0754785720492614
1.0715896555249411
1.0810291667558245
1.0859076136183294
1.065560421403071
1.074071786164251
1.0562842958541152
1.047032371278173
1.0383626599151337
1.0306044752128636
1.0238980839157268
1.0163204858120856
1.0121235364310976
1.0182792587010714
1.0089275203727404
1.013700677872758
1.010077578127399
1.0065003902893659
1.0073102832357186
1.0053049710579522
1.0047733073663043
1.0036843055089744
1.003987408850132
1.0032948803018382
1.0031996899322084
1.0240373575832864
1.0377827111540656
1.0540276655973824
1.0247321279255077
1.0340237284797702
1.0720977954055115
1.065417477667464
1.0766798885028326
1.0694555700113944
1.0590427058658807
1.0841870038585477
1.075105597126082
1.0242340643883943
1.0512398238741718
1.0196470454206286
1.0091319940555479
1.0790605294259406
1.0704032401575114
1.0344440063446005
1.0027017717238853
1.0033116066659622
1.0039833364091337
1.006144247240978
1.0075903524989474
1.011737989708743
1.0131967721972805
1.0208948219767493
1.0530712580075536
1.026904450074747
1.076945612586719
1.0853521982254202
1.0490327200728338
1.032978082811724
1.0415769128204566
1.053151067711765
1.0023830257257973
1.002669318806219
1.0039418911341462
1.005021975539892
1.0079147626332652
1.0097441058483008
1.0144741786155285
1.0255108295523192
1.0411378679623635
1.1079720339973427
1.0992860060361318
1.0766662395484838
1.087955370491687
1.0607630654085543
1.0029734870249556
1.003251575737536
1.003170662236571
1.0612209313495533
1.003752708679081
1.0043770222435455
1.0056003462587435
1.0053642798876208
1.0069008653560458
1.0083446693190008
1.0107080771135222
1.010158338086199
1.0127990591735794
1.0154620518411537
1.0192794234287772
1.0265465388359434
1.0680748969587583
1.0320716499160505
1.0420100803883223
1.0488854790194408
1.0174362726643023
1.0457873258270816
1.030481826843522
1.0386471657763703
1.001457016575714
1.0217583110290502
1.0389659103824609
1.0837777927921366
1.0744046642620408
1.0002569121773928
1.0282062276245683
1.0692428658327968
1.0781093475386858
1.0039401956855856
1.0875215093191695
1.0771331067686196
1.087213640991538
1.0783251134841894
1.0690638753649242
1.0624278431760652
1.0620060165736354
1.018597516990985
1.001053800772188
1.0163453081962195
1.0065916817529479
1.0761908357875523
1.087210488862965
1.0528187222834984
1.0469710938931818

SCALARS Omega double
LOOKUP_TABLE default
4.10027659139327
-10.32773079543906
-14.268649563402413
0.13217857056966564
4.492515426468302
-2.683794553311323
-4.473557660637357
3.542292223089964
1.0314781535196331
20.842645460337486
-8.18867520115717
-0.40947252232982495
-0.8985275654018043
-0.2342139594400362
-0.1136909786862392
-0.030612111205701193
-0.11116900933741486
-0.18643504132272945
-0.6569892800341929
-0.6110339256968181
-6.115745385054099
17.94367058510743
3.512463678239508
-1.0379081270118475
0.14534828365099914
0.03351225769542619
-0.3220314024777652
2.111361729823837
1.0918367791686698
0.7143021740882843
0.5849518485720926
0.5327239424924571
0.5070780229780856
0.478190195345879
0.4415368869522399
0.3974117805689139
0.3477326855199638
0.2962463956678394
0.24497892024687679
0.1961831334969323
0.15080900293043317
0.10952048226340658
0.0726134735139841
0.0403334535876054
0.012569703002447322
-0.011155351319364277
-0.031081819744309024
-0.04752459061526944
-0.060811397849607
-0.07154132508093165
-0.08001355260247925
-0.08658310710634291
-0.09151389783494544
-0.09520530148312863
-0.09785149335899358
-0.09967300323587007
-0.10081314042058508
-0.10146383311319858
-0.10170958670474058
-0.10162686875797726
-0.10124796092030283
-0.10059290947257192
-0.09964829272780439
-0.09834303165045268
-0.09661228010951142
-0.0943427239352173
-0.09142625852354604
-0.08763222667101639
-0.08279843106148023
-0.07668844521883783
-0.0690952706307538
-0.05954731728052028
-0.04780290324019079
-0.03366497387645006
-0.016472751703938616
0.003910499121573791
0.027743081711545967
0.055309120543577325
0.08677693338592841
0.122036904926874
0.1605761313650782
0.20168960504717157
0.2440135057840145
0.2859350888724835
0.3247869460063048
0.35760137009517223
0.37954715493575897
0.3852480049258384
0.37065562196845864
0.3300023908616116
0.2610341029408824
0.16510919313939587
0.06635078647486117
0.31510667870839665
0.3393627792561058
-0.11646412749117246
-0.1309118566713705
-0.10570544243772302
-0.11366535237165314
-0.12385496956433249
0.7178328075972916
0.8448250621494469
0.04691930011633315
0.46988162820866136
0.40812474718041986
0.16694960756141083
0.002897547181308192
-0.07395212629652727
-0.10007944144175132
-0.10519634427325456
-0.10385548594296075
-0.10230780756921175
-0.09843631748291919
-0.08460653283104229
-0.040685624535338
0.3065098106917719
0.09488991775396355
0.05186250843446995
0.2173010543448348
0.43991741008826835
0.5280590909253449
-0.10168073738303843
-0.09715105263079668
-0.1023406554557888
-0.08372762101374286
-0.0965915990817389
-0.07320444394486537
-0.011171932709846052
-0.04893133637322731
0.11627850663910402
0.32074728071919145
0.40938443047404977
0.49085197054124474
0.13352109535350057
2.249060120060108
2.5274009286811605
0.3156010861599061
0.007244176739874431
-0.3187831354494656
0.4342894838832861
-0.10231092620561699
-0.09981692804940452
-0.10036161190083462
-0.09157790154202475
-0.08711259273863517
-0.06873062134324961
-0.046554572846213865
0.04633405893688268
0.21351020278819977
0.04064205045392823
-0.14344316639190216
-0.11680355787599676
-0.12342029435379653
-0.10619346693104939
0.9676272328594285
0.5747828401968371
-0.031028869521132877
0.23799457140393288
0.14049951445218484
0.45038740922570963
0.22190937382384268
0.06523625354168458
-0.09857906645497296
0.3875232242072358
-0.030069434426093087
-0.4188839881125436
-0.15081365778980288
0.032554703945377794
0.27537492140994285
-0.10461616328123012
-0.10807518479464172
-0.10488149129715264
-0.11268902259818782
-0.10497213967297553
-0.1131059982125153
-0.08190653119690741
-0.07324263404945155
0.8361155033631477
0.6923071888275001
-0.2008834015417799
-0.09796264605638043
-0.14249513301732017
-0.2089131399909171
-0.1146443076132112
0.32160350023436624
0.3990826750066203
0.5432661528287698
0.5181516061355419
-0.30164007038948243
0.37625886709764406
0.4676878473966176
-0.10188407618522377
-0.10167070348083714
-0.10038421077997511
-0.09788440006000768
-0.10072930313026109
-0.09731626896736774
-0.0862062282845832
-0.09350530319560912
-0.0902327654770059
-0.07756313162381895
-0.07426981169234384
-0.05627397507197576
-0.024308275523065165
-0.05649859199146674
0.02302009819942975
0.08697762294520278
0.26890621586562263
0.17062922353603377
-0.6191909294948719
-0.5147470841200441
2.3294452251176567
1.9777754326558672
-0.011509735356736368
-0.2381694070056573
-0.1206283898857911
0.16690677657402986
-1.0217322041345918
0.265526280335764
0.18017280046155223
0.039206147182902974
0.1014834852780667
0.3466251469742414
-0.008566668962075086
0.3920916325711646
0.21860644186167139
0.36523518412038
0.5338230402315007
0.7124939981804466
0.4234154728689713
0.4972714401492112
0.3222716188844755
0.21880357137290396
0.12752218732115014
0.0538123595290819
-0.0016606519075994279
-0.04142765043643547
-0.06554031118251984
-0.04122242054124638
-0.08056138242308919
-0.06760899314903722
-0.08431587012182379
-0.09007820839771175
-0.09403104484554048
-0.09919241073595864
-0.09582606822838549
-0.09921886259141441
-0.10139610466109303
-0.10184407578953152
-0.10108332294295123
0.013962250856950154
0.13979943912685835
0.30760252635959107
-0.2638912731608558
0.09725913339460027
0.6218180596333378
0.5337798651878496
2.90399537779957
2.1556482072632193
0.3856460207470689
0.4315959595344229
0.47340738223829515
0.005161758009574209
0.30623706254510114
-0.024410384890372953
-0.2810106959197276
0.5921227818726016
0.5085895250230708
0.07552629316607312
-0.10322296886511004
-0.10472893920540671
-0.10082993818079813
-0.1038571831498323
-0.09299651548835065
-0.08998797084827691
-0.0714738515523809
-0.04182883895008933
0.31016150189344904
0.03413599038016512
1.2523254612613528
1.4785748227891675
0.2651621003473044
0.0903693403607208
0.18033095470928054
0.413617379000315
-0.10537196688991186
-0.10433475527789089
-0.11016426595388712
-0.10444550631714639
-0.11200116000828884
-0.09772746947263139
-0.09915262606405946
-0.028490043248007278
0.14423106337867284
5.598342302591018
5.40333102162781
-0.012855761298741336
2.0975690307088994
0.4888528703123681
-0.10265928971648981
-0.10312383633042624
-0.1013519460441505
0.4019968996825519
-0.09983805537138656
-0.1027029764595226
-0.10100566887009674
-0.0958704840372468
-0.09124247913331901
-0.0948781930184596
-0.08672286981591452
-0.07944071602587928
-0.06713690871861135
-0.06531830847996078
-0.042286178491479365
0.010999425364442376
0.4886783081717631
0.060394918398151455
0.1628720219176292
0.24370900185897337
-0.06902117036897094
0.2226250902301885
0.06938332803923951
0.14914127614924164
-0.10985028243184573
-0.16829937846873722
0.152249106007637
0.38217091777655865
0.3751898652410263
-0.08900149605251731
0.03241088178067099
0.4400053669968826
0.5321896093691914
-0.13409298090699528
0.46689768371588053
0.011219789281855906
-0.5101373601039573
0.3408516063700145
1.02031857308851
0.9271598518378197
0.3733238666520971
-0.026222501822183455
-0.17256911003281178
-0.05296720419872057
-0.1661729546634728
0.11856080318565355
1.2482118262404924
0.5729328676132287
-1.2167721124908963

SCALARS Vx_analytic double
LOOKUP_TABLE default
4.10027659139327
-10.32773079543906
-14.268649563402413
0.13210637964525898
4.492515426468302
-2.683794553311323
-4.473557660637357
3.542292223089964
1.0314781535196331
20.842645460337486
-8.18867520115717
-0.40947252232982495
-0.8985275654018043
-0.2342139594400362
-0.1136909786862392
-0.030612111205701193
-0.11116900933741486
-0.18643504132272945
-0.6569892800341927
-0.6110339256968181
-6.115745385054099
17.94367058510743
3.513264695897729
-1.0157705221644502
0.14755553987862763
0.03451969899688762
-0.3200761990880808
2.111361729823837
1.0918367791686698
0.7143021740882843
0.5849518485720926
0.5327239424924571
0.5070780229780856
0.478190195345879
0.4415368869522399
0.3974117805689139
0.3477326855199638
0.2962463956678394
0.24497892024687679
0.1961831334969323
0.15080900293043317
0.10952048226340658
0.0726134735139841
0.0403334535876054
0.012569703002447322
-0.011155351319364277
-0.031081819744309024
-0.04752459061526944
-0.060811397849607
-0.07154132508093165
-0.08001355260247925
-0.08658310710634291
-0.09151389783494544
-0.09520530148312863
-0.09785149335899358
-0.09967300323587007
-0.10081314042058508
-0.10146383311319858
-0.10170958670474058
-0.10162686875797726
-0.10124782763427635
-0.1005929420258876
-0.09964845503362003
-0.09834350188570747
-0.09661312130383148
-0.09434451870414241
-0.09142861869068317
-0.08763597042439633
-0.08280334277625932
-0.07669661378441556
-0.06910496133701077
-0.059561448503400026
-0.04782298753028629
-0.03367246038740949
-0.016485391444113626
0.0038884095173125806
0.027721518391527207
0.055297474120546586
0.08676827990527965
0.12202034388678928
0.1605745305616316
0.20170954643472702
0.24406643450651377
0.28600158380340557
0.32489654469312107
0.35771286937651325
0.3797278569309097
0.3856007159082671
0.3710283160683353
0.3304074131034309
0.2613683054373122
0.16535185060667143
0.0663076675027063
0.30728902821667253
0.33717061451950114
-0.1157371465591444
-0.13079943947704425
-0.10570535512035098
-0.11372780229698341
-0.12456353024104169
0.7269997387828715
0.8347617254261211
0.046007270507974374
0.46799101154815204
0.4105073469616562
0.16692146289415472
0.003136668829820359
-0.07378379844411447
-0.100015673908315
-0.10518127230297811
-0.10385296485561794
-0.10231052801913806
-0.09846832163141145
-0.08473012843196959
-0.041016717918618106
0.30863173663746013
0.10164156814941322
0.05153787113455537
0.2175443433744141
0.44228040793628004
0.5270414712544427
-0.10168036653734408
-0.09715932321297352
-0.10233728462890185
-0.08377000667532725
-0.09657556246879091
-0.07315791418818837
-0.011102327654073435
-0.04907507932102661
0.11625277766179493
0.32025822989383107
0.4115959586549464
0.49215553311998284
0.13340677181987878
2.2562437466202625
2.4658842148359748
0.31620104478476896
0.0070459417587185064
-0.31995283261554597
0.43353010341475484
-0.10230954768423219
-0.09981884025007563
-0.10035371803221416
-0.091593269756299
-0.08708221542019284
-0.0687861153351608
-0.04648330342782592
0.046411186954464
0.2133888545963796
0.04151052174461256
-0.14299730792580523
-0.11677288635514806
-0.12376119510855979
-0.10620445994097266
0.8926160215191553
0.5831067609990578
-0.03178275469203707
0.23793720672231344
0.14188665746045342
0.4592261061046902
0.2220384809840123
0.06507796700272649
-0.09857956795859069
0.38847507772192996
-0.030156942430128897
-0.41751390885016326
-0.15089691668252195
0.03283307489734537
0.274637274413825
-0.10461649294568662
-0.10806434631433652
-0.10490610192407016
-0.11263371908782982
-0.10508948353098568
-0.11291175051681789
-0.08229300621222871
-0.07287632478056175
0.8282370826620236
0.6979119990899064
-0.200668224366929
-0.09797116703729768
-0.14243482955904252
-0.20985491954077823
-0.11468425978459909
0.32291998605016187
0.4004661603611725
0.5455847679279001
0.518208742767415
-0.3007930965756507
0.3759623336530174
0.46729198944545375
-0.1018833304372518
-0.10167020729500549
-0.10038502889238228
-0.09788823853187667
-0.1007276479578377
-0.0973125372005398
-0.08622901539986666
-0.09351735546867983
-0.09022641064849934
-0.07755275573802445
-0.07432039419272064
-0.05635099743423676
-0.024297351224696204
-0.056487919465080014
0.023012124129314776
0.08694559798526794
0.2687318303414079
0.17053225419158458
-0.600205555528742
-0.5404004018239253
2.3324891610293172
1.9952133237030631
-0.014257358256586394
-0.2352658413429248
-0.12196078555339349
0.16889580909682775
-1.0064285288187853
0.26576571578263775
0.1801371869867817
0.03905086595497031
0.10135564260568015
0.3473621975765989
-0.008684319436425746
0.3932823963547774
0.21971500681267123
0.36633678585753676
0.5347506766801028
0.716724244175964
0.42311179378307007
0.49705399018438384
0.32210796456829227
0.21875178330144107
0.12751921382331619
0.05384393202415724
-0.0016322894110066119
-0.04151191154144916
-0.06558852476044993
-0.04119317858866673
-0.08058918604118019
-0.06759113275955943
-0.08430334730116759
-0.09009150161578203
-0.09402489189565343
-0.0991892092167692
-0.09583184570713264
-0.09922064606748245
-0.10139490963892568
-0.10184361018893251
-0.10108341548208656
0.013839356927127764
0.13970756573688325
0.30797848305438247
-0.2698286969808408
0.09687450540813929
0.6181302600907733
0.5377275131532535
2.803641245251138
1.9883210013761845
0.38716987919028045
0.42802012396521744
0.4775215942845184
0.0047806028753474405
0.30695853228268555
-0.02464960142023838
-0.28242466287926643
0.5891893005308753
0.5124021151999851
0.0756995231952906
-0.10322246034413816
-0.10472312726326181
-0.1008427319990213
-0.10382419511221379
-0.09306743179376623
-0.0898841711449136
-0.07166214312505347
-0.0416090827464784
0.3094423826469603
0.033955124044263464
1.2650001535187234
1.4602339632998753
0.2655939521590955
0.09019050065295701
0.1803862359430294
0.41485591046498704
-0.10536896234549109
-0.10433930004447942
-0.11013665881009671
-0.1044876029414194
-0.11189194718839147
-0.0979055117247168
-0.0988342332105665
-0.028031205032531238
0.14415472576376404
5.320999423523192
5.209113620692601
-0.012093327462683785
2.094004461100137
0.48593036170382203
-0.1026578214428813
-0.10312143451824275
-0.10135356152653069
0.40109114383681077
-0.09984342182759169
-0.10269515362541237
-0.10099102633994621
-0.09589104253485731
-0.09127527609482369
-0.09484443756693847
-0.08667060519881681
-0.07952305265788574
-0.0672486103417031
-0.06522696169385223
-0.04217311601282058
0.011130154367184831
0.48724962629683527
0.06049584217410034
0.1628178051426672
0.24343739592323946
-0.06948058667304287
0.22266343542095657
0.06925833770796036
0.1491575845889634