# vtk DataFile Version 1.0
2D Simulation C++
ASCII
DATASET UNSTRUCTURED_GRID
FIELD FieldData 1
NODES 1 2 int
348 601

POINTS 348 double
0.0 0.5 0.0
0.0 1.0 0.0
2.0 1.0 0.0
2.0 0.5 0.0
0.0 0.528801679611206 0.0
0.0 0.564507782459259 0.0
0.0 0.6110168099403381 0.0
0.0 0.6721802353858948 0.0
0.0 0.7528436183929443 0.0
0.0 0.8593378663063049 0.0
0.16666941344738007 1.0 0.0
0.3333356976509094 1.0 0.0
0.5000020265579224 1.0 0.0
0.6666678786277771 1.0 0.0
0.8333337306976318 1.0 0.0
1.0 1.0 0.0
1.1666662693023682 1.0 0.0
1.3333321809768677 1.0 0.0
1.4999979734420776 1.0 0.0
1.6666642427444458 1.0 0.0
1.8333306312561035 1.0 0.0
2.0 0.8593378663063049 0.0
2.0 0.7528436183929443 0.0
2.0 0.6721802353858948 0.0
2.0 0.6110168099403381 0.0
2.0 0.564507782459259 0.0
2.0 0.528801679611206 0.0
0.029850948601961136 0.5 0.0
0.05970168858766556 0.5 0.0
0.08955242484807968 0.5 0.0
0.1194031685590744 0.5 0.0
0.14925390481948853 0.5 0.0
0.17910465598106384 0.5 0.0
0.20895539224147797 0.5 0.0
0.2388061285018921 0.5 0.0
0.2686568796634674 0.5 0.0
0.29850760102272034 0.5 0.0
0.32835835218429565 0.5 0.0
0.35820910334587097 0.5 0.0
0.3880598247051239 0.5 0.0
0.4179105758666992 0.5 0.0
0.44776129722595215 0.5 0.0
0.47761204838752747 0.5 0.0
0.5074627995491028 0.5 0.0
0.5373135209083557 0.5 0.0
0.5671642422676086 0.5 0.0
0.5970150232315063 0.5 0.0
0.6268657445907593 0.5 0.0
0.6567164659500122 0.5 0.0
0.6865672469139099 0.5 0.0
0.7164179682731628 0.5 0.0
0.7462686896324158 0.5 0.0
0.7761194705963135 0.5 0.0
0.8059701919555664 0.5 0.0
0.8358209133148193 0.5 0.0
0.865671694278717 0.5 0.0
0.89552241563797 0.5 0.0
0.9253731369972229 0.5 0.0
0.9552239179611206 0.5 0.0
0.9850746393203735 0.5 0.0
1.0149253606796265 0.5 0.0
1.0447760820388794 0.5 0.0
1.0746268033981323 0.5 0.0
1.1044776439666748 0.5 0.0
1.1343283653259277 0.5 0.0
1.1641790866851807 0.5 0.0
1.1940298080444336 0.5 0.0
1.2238805294036865 0.5 0.0
1.2537312507629395 0.5 0.0
1.2835819721221924 0.5 0.0
1.3134328126907349 0.5 0.0
1.3432835340499878 0.5 0.0
1.3731342554092407 0.5 0.0
1.4029849767684937 0.5 0.0
1.4328356981277466 0.5 0.0
1.4626864194869995 0.5 0.0
1.492537260055542 0.5 0.0
1.522387981414795 0.5 0.0
1.5522387027740479 0.5 0.0
1.5820894241333008 0.5 0.0
1.6119401454925537 0.5 0.0
1.6417908668518066 0.5 0.0
1.6716417074203491 0.5 0.0
1.701492428779602 0.5 0.0
1.731343150138855 0.5 0.0
1.761193871498108 0.5 0.0
1.7910445928573608 0.5 0.0
1.8208953142166138 0.5 0.0
1.8507460355758667 0.5 0.0
1.8805968761444092 0.5 0.0
1.910447597503662 0.5 0.0
1.940298318862915 0.5 0.0
1.970149040222168 0.5 0.0
1.7358819246292114 0.7499510645866394 0.0
0.2656642198562622 0.7486277222633362 0.0
0.49981194734573364 0.737183690071106 0.0
0.74151611328125 0.7359843254089355 0.0
0.9774143695831299 0.7371892929077148 0.0
1.201690912246704 0.7367381453514099 0.0
1.447761058807373 0.7383390665054321 0.0
1.8591958284378052 0.6421071290969849 0.0
0.14080412685871124 0.6421071290969849 0.0
1.588537573814392 0.6783608794212341 0.0
0.2553686201572418 0.6221352219581604 0.0
1.7466964721679688 0.6278358101844788 0.0
0.38199201226234436 0.6273008584976196 0.0
0.5013589859008789 0.6272794008255005 0.0
0.6207823157310486 0.6272526383399963 0.0
0.7401852607727051 0.627252459526062 0.0
0.8595882654190063 0.6272523999214172 0.0
0.9701492786407471 0.6212864518165588 0.0
1.0807102918624878 0.6272523999214172 0.0
1.2001131772994995 0.6272523999214172 0.0
1.3195161819458008 0.6272523999214172 0.0
1.4488563537597656 0.6310953497886658 0.0
1.9247323274612427 0.5706554055213928 0.0
0.07526770234107971 0.5706554055213928 0.0
1.5377081632614136 0.5910930037498474 0.0
1.6566967964172363 0.5934624075889587 0.0
1.8074009418487549 0.5708622932434082 0.0
0.1940300166606903 0.5737577676773071 0.0
1.0286364555358887 0.5665481686592102 0.0
1.14803946018219 0.5665481686592102 0.0
0.9116620421409607 0.5665481686592102 0.0
1.2674424648284912 0.5665481686592102 0.0
0.7922590970993042 0.5665481686592102 0.0
0.6728560328483582 0.5665482878684998 0.0
0.5534531474113464 0.5665481686592102 0.0
1.3892061710357666 0.5727682709693909 0.0
0.43402159214019775 0.5665869116783142 0.0
0.3146642744541168 0.5667200088500977 0.0
1.8656742572784424 0.5607567429542542 0.0
0.1343258023262024 0.5607567429542542 0.0
1.5970147848129272 0.5642029047012329 0.0
1.8783670663833618 0.7786769866943359 0.0
0.12163297086954117 0.7786769866943359 0.0
1.7164177894592285 0.562579333782196 0.0
1.4776118993759155 0.5620538592338562 0.0
1.5857784748077393 0.867691159248352 0.0
0.25373148918151855 0.5588531494140625 0.0
0.9701492786407471 0.5582930445671082 0.0
1.0895521640777588 0.5582930445671082 0.0
0.8507462739944458 0.5582930445671082 0.0
1.20895516872406 0.5582930445671082 0.0
0.7313433289527893 0.5582930445671082 0.0
1.3283581733703613 0.5582930445671082 0.0
0.6119403839111328 0.5582930445671082 0.0
0.49253740906715393 0.5582930445671082 0.0
0.37313446402549744 0.5582956075668335 0.0
0.36864349246025085 0.7376502752304077 0.0
0.602456271648407 0.7355343103408813 0.0
0.8441241383552551 0.7366551756858826 0.0
1.3355978727340698 0.7366551160812378 0.0
1.0895521640777588 0.7378703355789185 0.0
0.07051979005336761 0.6486480832099915 0.0
1.9294801950454712 0.6486480832099915 0.0
1.5086064338684082 0.6743985414505005 0.0
1.6785967350006104 0.6649783849716187 0.0
1.9543375968933105 0.5452249050140381 0.0
0.04566239193081856 0.5452249050140381 0.0
1.6567095518112183 0.5496091842651367 0.0
1.53738272190094 0.5491842031478882 0.0
0.91306072473526 0.8965699672698975 0.0
1.7782752513885498 0.5446287989616394 0.0
1.4163299798965454 0.5447981357574463 0.0
0.4287482798099518 0.8945969939231873 0.0
1.2610714435577393 0.8950135707855225 0.0
0.4313095211982727 0.6832783222198486 0.0
0.31561949849128723 0.6858259439468384 0.0
1.029850721359253 0.6781684160232544 0.0
0.9082015752792358 0.6848641633987427 0.0
1.1492537260055542 0.6781684160232544 0.0
0.7886138558387756 0.678956151008606 0.0
1.2709345817565918 0.684736430644989 0.0
0.6685023903846741 0.6868807673454285 0.0
1.4007169008255005 0.6702371835708618 0.0
0.5483440160751343 0.6792802214622498 0.0
0.19808045029640198 0.6887137293815613 0.0
1.797759771347046 0.6853783130645752 0.0
0.6811949610710144 0.8757594227790833 0.0
1.0189321041107178 0.8474968671798706 0.0
0.7922950983047485 0.8446238040924072 0.0
1.3765455484390259 0.8590760827064514 0.0
1.1571698188781738 0.8478953838348389 0.0
1.8954496383666992 0.5359624624252319 0.0
1.8360060453414917 0.5359931588172913 0.0
0.10455036163330078 0.5359624624252319 0.0
0.16417928040027618 0.5353734493255615 0.0
0.5530290007591248 0.8422092199325562 0.0
0.2832632064819336 0.5367912650108337 0.0
0.22469767928123474 0.5394234657287598 0.0
0.9405550956726074 0.5357381105422974 0.0
0.9997434020042419 0.5357381105422974 0.0
1.0600273609161377 0.5365630984306335 0.0
1.1191463470458984 0.5357381105422974 0.0
0.8802711367607117 0.5365630984306335 0.0
0.8211521506309509 0.5357381105422974 0.0
1.2385493516921997 0.5357381105422974 0.0
1.179430365562439 0.5365630984306335 0.0
0.7608681321144104 0.5365630984306335 0.0
0.7017492055892944 0.5357381105422974 0.0
1.2988333702087402 0.5365630984306335 0.0
1.357560396194458 0.5390686392784119 0.0
0.5823462605476379 0.5357381105422974 0.0
0.6414651870727539 0.5365630984306335 0.0
0.5220622420310974 0.5365630984306335 0.0
0.4629422128200531 0.535739541053772 0.0
0.3435409665107727 0.5357455015182495 0.0
0.4026572108268738 0.5365669131278992 0.0
0.21006634831428528 0.8590372204780579 0.0
1.7943172454833984 0.8627070188522339 0.0
0.06134982034564018 0.7191494703292847 0.0
1.938650131225586 0.7191494703292847 0.0
1.634666085243225 0.7584379315376282 0.0
0.3355695903301239 0.8387951850891113 0.0
1.537941336631775 0.7633647918701172 0.0
1.9670078754425049 0.574067234992981 0.0
0.032992132008075714 0.574067234992981 0.0
1.6862140893936157 0.5314788222312927 0.0
1.6272135972976685 0.5317342281341553 0.0
1.5077245235443115 0.5309156775474548 0.0
1.5668202638626099 0.5316618084907532 0.0
1.7466963529586792 0.5298213958740234 0.0
1.4473658800125122 0.5297333002090454 0.0
1.804386019706726 0.5275400876998901 0.0
1.9283779859542847 0.5282225012779236 0.0
1.8656879663467407 0.5267112255096436 0.0
0.13432854413986206 0.5271331071853638 0.0
0.07162196189165115 0.5282225012779236 0.0
0.25373148918151855 0.527070939540863 0.0
0.19419340789318085 0.5297109484672546 0.0
0.31349387764930725 0.5272363424301147 0.0
0.37313446402549744 0.5270199179649353 0.0
0.4329495429992676 0.5274069309234619 0.0
0.49253740906715393 0.5270196795463562 0.0
0.5523557066917419 0.5274024605751038 0.0
1.3898069858551025 0.5277745127677917 0.0
1.3283581733703613 0.5270196795463562 0.0
0.6119403839111328 0.5270196795463562 0.0
1.2685397863388062 0.5274024605751038 0.0
0.6717586517333984 0.5274024605751038 0.0
0.7313433289527893 0.5270196795463562 0.0
1.20895516872406 0.5270196795463562 0.0
0.7911616563796997 0.5274024605751038 0.0
0.8507462739944458 0.5270196795463562 0.0
1.1491369009017944 0.5274024605751038 0.0
1.0895521640777588 0.5270196795463562 0.0
0.9105646014213562 0.5274024605751038 0.0
0.9701492786407471 0.5270196795463562 0.0
1.0297338962554932 0.5274024605751038 0.0
1.4776118993759155 0.5259945392608643 0.0
1.597015619277954 0.5255197882652283 0.0
1.7164177894592285 0.525999903678894 0.0
1.6834615468978882 0.8477573990821838 0.0
1.5822722911834717 0.6086509227752686 0.0
0.20459823310375214 0.6270732283592224 0.0
1.8037469387054443 0.6209055185317993 0.0
0.09990309923887253 0.8589919805526733 0.0
1.9000968933105469 0.8589919805526733 0.0
1.75603187084198 0.5789161324501038 0.0
0.10896337777376175 0.5982794761657715 0.0
1.8910366296768188 0.5982794761657715 0.0
1.4950518608093262 0.605266273021698 0.0
1.7049394845962524 0.6007562279701233 0.0
1.4387125968933105 0.5775743722915649 0.0
1.489302158355713 0.851039469242096 0.0
0.15732239186763763 0.5961292386054993 0.0
1.8436260223388672 0.5944437384605408 0.0
0.4399496018886566 0.6259797215461731 0.0
1.022565245628357 0.6257523894309998 0.0
[...]
POINT_DATA 348
SCALARS Psi double
LOOKUP_TABLE default
1.0878984745059146
1.0
1.0
1.076668469256642
1.0877880062308707
1.0875451104726914
1.0891468084440818
1.0938728055774973
1.1033510760285983
1.1418217491790534
1.0
1.0
1.0
1.0
1.0
1.0
1.0
1.0
1.0
1.0
1.0
1.134268546394864
1.0942751242409656
1.0844750354831818
1.079881911372406
1.0777145537983444
1.076859054192026
1.0879812890902025
1.0867118737203623
1.084822304727297
1.0824207999612732
1.079479810585634
1.076023747953614
1.0721218737328302
1.0678672938765623
1.063383460786035
1.0587584764216047
1.0540920620728158
1.0494630468909525
1.0449565223378587
1.040624393395562
1.0364944248356216
1.03259961928809
1.0289672844690543
1.0256109400015723
1.0225183845118457
1.0196944968263195
1.0171381906735348
1.0148448620382082
1.012790584415185
1.010968779186519
1.009369171562932
1.0079826246132644
1.0067887562643603
1.0057803759758281
1.0049494028548842
1.0042890027962357
1.0037866646418063
1.0034382993190742
1.0032411995659931
1.0031934442639967
1.0032914481784256
1.0035346311375253
1.0039285742433677
1.0044762170590067
1.0051807818982688
1.0060462357461994
1.00708595290702
1.0083062724644192
1.0097144700031635
1.0113162605269275
1.0131345528458306
1.0151740580343673
1.017430970049361
1.019934678575613
1.022676493090149
1.0256555034855541
1.0288722148436178
1.0323240682515777
1.0359903891850188
1.0398395377927854
1.043833844027076
1.0479255363452389
1.0520543032562286
1.0561439082955961
1.0601072579917985
1.0638381740187948
1.06724021277482
1.070204758710058
1.072629192736775
1.0744756476862993
1.0757491274576871
1.0764613444357787
1.0467867111097475
1.0518854974995275
1.020119954567465
1.0058086488405231
1.0016730890732288
1.0036439487144646
1.0139159671409286
1.0733682570847214
1.0821127466395304
1.0311074484642164
1.0635343109924493
1.0566896057905442
1.0425530035947272
1.0268241535057527
1.0156243623884142
1.0084497788026157
1.0043633587493608
1.002845786771679
1.0030421303403574
1.0054010944040004
1.0102988518924472
1.019045707142146
1.0762815970208368
1.0856765450456363
1.02925134343249
1.0445295116975009
1.0659083918864352
1.0740341916067113
1.0030690600136956
1.0045811566254808
1.003818930540979
1.0086117114269169
1.0070315646224708
1.0132384594371568
1.0232041804416894
1.0157540903958495
1.0374860201990437
1.0554784179709211
1.0719808302860085
1.0811616401264956
1.0372069616075081
1.0782438794756337
1.086358019489143
1.0536728172764955
1.0235734735172657
1.0130768691662626
1.0652546100949438
1.0031970524730107
1.003579888193563
1.005165743127907
1.0063427129972864
1.0098477968555446
1.0118732770505459
1.0179114426599607
1.0300947466121204
1.046479489247985
1.0356947694515555
1.012354618443049
1.003138742696423
1.0079927420496284
1.001937517782547
1.0902638557374251
1.0807843178728127
1.0226367967517496
1.0445797931518361
1.07664865299247
1.0869297742305093
1.0454993564028185
1.030180404416084
1.000432477945714
1.0622233994945987
1.0182593122279588
1.0105238643737657
1.0014801910947344
1.0321300518410055
1.0494026491767914
1.0022866924228693
1.0028325832447509
1.0035487593324008
1.0056184817133786
1.0068375194662316
1.0105844966847406
1.0140169693415877
1.0195846246205789
1.0716959174673073
1.0635402041394337
1.003369088874758
1.000551528926601
1.0019091530081181
1.0044737988317909
1.0011770794818944
1.0738826786534958
1.0689326686853917
1.0837058532098618
1.077857778864786
1.008051845411658
1.060955664801595
1.0698224662033122
1.003544909552875
1.0031568981133796
1.0033514355710702
1.004128349162186
1.0045480023594837
1.0061844091927696
1.0075849559331445
1.0055370177879102
1.0085721333130844
1.0117220718823767
1.0104033157148815
1.013927017822794
1.0208731770420243
1.0158334216377207
1.0270743050415623
1.034252173226316
1.0515054291938797
1.0425620823573967
1.0395567065611517
1.0362112339411216
1.0980435920039102
1.0884747659977316
1.0302226293673078
1.026617748446217
1.0193764487887331
1.077798180624439
1.0869960836179222
1.0498144934644742
1.041708105056085
1.0271153359102443
1.0339262736258141
1.0581499446394118
1.0211277923836966
1.0654241818171064
1.0754785720491196
1.0715896555247872
1.0810291667556997
1.085907613618224
1.0655604214028778
1.0740717861640967
1.0562842958538752
1.0470323712778802
1.0383626599147842
1.030604475212455
1.023898083915259
1.016320485811624
1.0121235364305838
1.0182792587005476
1.0089275203721784
1.013700677872183
1.0100775781267806
1.0065003902887608
1.0073102832350642
1.0053049710572728
1.0047733073656617
1.0036843055083036
1.0039874088494376
1.0032948803011406
1.0031996899315183
1.0240373575829007
1.0377827111537758
1.054027665597169
1.0247321279254586
1.0340237284795013
1.0720977954053743
1.065417477667314
1.0766798885028075
1.069455570011367
1.059042705865698
1.0841870038584416
1.0751055971259462
1.0242340643880603
1.0512398238739724
1.0196470454202307
1.0091319940554677
1.0790605294258162
1.0704032401573642
1.034444006344293
1.0027017717232867
1.0033116066653593
1.0039833364085746
1.0061442472404083
1.0075903524984575
1.0117379897082408
1.0131967721968638
1.020894821976339
1.0530712580073478
1.0269044500744036
1.076945612586619
1.085352198225338
1.049032720072611
1.0329780828114223
1.041576912820201
1.0531510677116225
1.0023830257252753
1.0026693188057267
1.0039418911336466
1.0050219755394467
1.0079147626328084
1.009744105847926
1.0144741786151448
1.0255108295520203
1.041137867962151
1.1079720339972974
1.0992860060360774
1.0766662395483464
1.087955370491588
1.0607630654084084
1.0029734870243014
1.0032515757368834
1.0031706622359355
1.061220931349357
1.0037527086784608
1.0043770222429034
1.0056003462581138
1.0053642798870404
1.0069008653554927
1.0083446693184082
1.0107080771129564
1.0101583380857009
1.0127990591731157
1.0154620518406443
1.0192794234283051
1.0265465388355393
1.0680748969585911
1.0320716499156883
1.0420100803880283
1.0488854790191837
1.017436272664008
1.0457873258268326
1.030481826843186
1.038647165776141
1.0014570165754393
1.0217583110289141
1.0389659103822075
1.083777792792026
1.0744046642618985
1.0002569121773366
1.028206227624292
1.0692428658326407
1.0781093475385533
1.0039401956853702
1.087521509319072
1.0771331067684842
1.0872136409914437
1.0783251134840608
1.0690638753648454
1.0624278431759804
1.0620060165734506
1.018597516990547
1.0010538007721417
1.0163453081958274
1.0065916817527119
1.0761908357874128
1.0872104888628635
1.0528187222834886
1.0469710938931724

SCALARS Omega double
LOOKUP_TABLE default
4.100276591396
-10.327730795436201
-14.26864956339783
0.13217857057157775
4.492515426469314
-2.6837945533085694
-4.473557660634842
3.5422922230914513
1.0314781535196014
20.84264546033736
-8.18867520115416
-0.4094725223251452
-0.8985275653939457
-0.23421395942761378
-0.11369097867137168
-0.030612111190211146
-0.1111690093242047
-0.18643504131190963
-0.656989280026591
-0.6110339256923827
-6.115745385050953
17.943670585109476
3.5124636782393517
-1.0379081270119106
0.14534828365006713
0.03351225769548172
-0.32203140248037276
2.1113617298257505
1.0918367791703159
0.7143021740896408
0.5849518485730786
0.5327239424930024
0.5070780229781282
0.4781901953453584
0.44153688695110277
0.39741178056710197
0.3477326855174266
0.2962463956645326
0.24497892024276507
0.19618313349197825
0.15080900292461205
0.10952048225670392
0.07261347350639664
0.04033345357912749
0.012569702993087633
-0.011155351329583924
-0.031081819755355875
-0.04752459062711542
-0.060811397862211104
-0.07154132509423868
-0.08001355261642606
-0.08658310712087425
-0.09151389784999608
-0.0952053014986184
-0.09785149337483838
-0.09967300325199636
-0.10081314043691446
-0.10146383312963927
-0.10170958672120196
-0.10162686877438235
-0.10124796093657785
-0.10059290948863243
-0.09964829274356585
-0.0983430316658463
-0.09661228012447606
-0.09434272394968332
-0.09142625853744975
-0.08763222668431103
-0.0827984310741304
-0.076688445230802
-0.06909527064199884
-0.05954731729103161
-0.047802903249965036
-0.03366497388546072
-0.016472751712205892
0.003910499114038167
0.027743081704730332
0.05530912053745738
0.08677693338047363
0.12203690492204618
0.16057613136083956
0.20168960504347866
0.24401350578082032
0.2859350888697364
0.3247869460039542
0.3576013700931677
0.3795471549340514
0.38524800492437317
0.37065562196719193
0.33000239086050015
0.2610341029398887
0.16510919313851544
0.06635078647438336
0.3151066787097469
0.33936277925756014
-0.11646412749212254
-0.13091185667443037
-0.10570544244128625
-0.11366535237417562
-0.1238549695646816
0.7178328075969631
0.844825062150484
0.0469193001148721
0.46988162820801316
0.4081247471793541
0.16694960755828778
0.0028975471754233225
-0.07395212630508965
-0.1000794414524497
-0.10519634428525623
-0.10385548595556164
-0.10230780758084762
-0.0984363174930119
-0.08460653283898258
-0.04068562454058276
0.30650981069098143
0.09488991775556978
0.051862508429754685
0.21730105434218883
0.43991741008698193
0.5280590909253158
-0.10168073739804113
-0.09715105264443256
-0.10234065547099978
-0.08372762102510616
-0.0965915990959235
-0.07320444395688439
-0.01117193271889397
-0.04893133638164568
0.1162785066333774
0.320747280716603
0.4093844304730305
0.49085197054209534
0.13352109534942302
2.2490601200616167
2.527400928682852
0.3156010861576717
0.007244176733277218
-0.3187831354448869
0.43428948388203154
-0.10231092622108544
-0.09981692806405432
-0.10036161191588994
-0.09157790155477993
-0.0871125927520298
-0.06873062135340799
-0.04655457285695266
0.04633405892939518
0.21351020278404315
0.04064205045433502
-0.14344316639389562
-0.11680355787947048
-0.12342029435511587
-0.10619346693417248
0.9676272328609493
0.5747828401965944
-0.031028869523731305
0.23799457140299954
0.1404995144513302
0.45038740922753273
0.2219093738206361
0.06523625353622127
-0.09857906644497508
0.38752322420553953
-0.030069434434407755
-0.4188839881074061
-0.1508136577813792
0.03255470394298699
0.27537492140950254
-0.10461616328969484
-0.1080751848027876
-0.10488149130466362
-0.11268902260609262
-0.10497213967851449
-0.1131059982185389
-0.08190653120131142
-0.0732426340540391
0.8361155033640507
0.6923071888276444
-0.20088340153447237
-0.09796264604998059
-0.1424951330113908
-0.20891313998482472
-0.11464430760699493
0.32160350023336726
0.3990826750053289
0.5432661528299758
0.5181516061358793
-0.30164007038487184
0.3762588670955731
0.4676878473958536
-0.10188407620136251
-0.10167070349686223
-0.1003842107955591
-0.09788440007489127
-0.10072930314616287
-0.09731626898273944
-0.08620622829729069
-0.09350530320948759
-0.09023276549149224
-0.07756313163718412
-0.07426981170367772
-0.05627397508185032
-0.024308275533484244
-0.056498592003426475
0.023020098190725022
0.08697762293821934
0.268906215862023
0.17062922353080412
-0.6191909294917819
-0.5147470841169265
2.329445225118815
1.9777754326562245
-0.011509735355367388
-0.23816940700230568
-0.12062838988453138
0.1669067765733866
-1.02173220413247
0.2655262803328776
0.18017280045769882
0.039206147176573454
0.10148348527304073
0.34662514697213337
-0.00856666896985443
0.39209163256961477
0.21860644186075237
0.3652351841192311
0.5338230402322914
0.712493998182005
0.4234154728675522
0.4972714401490113
0.3222716188816207
0.21880357136846035
0.12752218731498943
0.05381235952117459
-0.0016606519172529313
-0.04142765044564281
-0.06554031119322969
-0.0412224205525328
-0.08056138243522432
-0.06760899316182403
-0.08431587013587362
-0.09007820841111991
-0.09403104486061728
-0.0991924107517364
-0.09582606824290686
-0.09921886260678377
-0.10139610467727046
-0.10184407580574978
-0.10108332295891148
0.01396225084988532
0.13979943912240683
0.3076025263571046
-0.26389127315739225
0.09725913339108773
0.6218180596335352
0.5337798651870611
2.9039953778016594
2.1556482072658567
0.3856460207454316
0.4315959595356757
0.47340738223760925
0.005161758004363101
0.3062370625431985
-0.02441038489752377
-0.2810106959149827
0.5921227818732453
0.5085895250221999
0.07552629316157328
-0.10322296887731147
-0.10472893921779597
-0.10082993819186248
-0.10385718316140985
-0.09299651549748955
-0.08998797085806998
-0.07147385155956701
-0.041828838957407424
0.31016150189177044
0.034135990374426384
1.2523254612617793
1.478574822790508
0.2651621003446961
0.09036934035609967
0.18033095470584665
0.4136173790001856
-0.10537196689889425
-0.10433475528592064
-0.11016426596226758
-0.10444550632402685
-0.1120011600157357
-0.09772746947776881
-0.09915262606974433
-0.0284900432516921
0.14423106337711922
5.598342302591977
5.403331021629101
-0.012855761299781969
2.097569030710634
0.4888528703124176
-0.10265928973091926
-0.10312383634480467
-0.10135194605798079
0.4019968996810447
-0.09983805538478444
-0.102702976473682
-0.10100566888395415
-0.0958704840494649
-0.09124247914476104
-0.0948781930312829
-0.0867228698280076
-0.07944071603574002
-0.06713690872751343
-0.06531830849045107
-0.04228617850093027
0.010999425356935473
0.4886783081711189
0.060394918391829026
0.16287202191328212
0.24370900185569788
-0.06902117037216494
0.22262509022680368
0.0693833280335288
0.14914127614685077
-0.10985028243038435
-0.16829937846686657
0.1522491060044081
0.3821709177778033
0.3751898652401477
-0.08900149604138657
0.03241088177723912
0.4400053669957544
0.5321896093696443
-0.13409298090489394
0.4668976837178407
0.011219789280930295
-0.5101373601021363
0.3408516063693906
1.0203185730901616
0.9271598518390998
0.3733238666502751
-0.026222501830744635
-0.17256911002194827
-0.052967204205356076
-0.16617295466227747
0.11856080318478668
1.2482118262422235
0.5729328676153813
-1.216772112487495

SCALARS Vx_analytic double
LOOKUP_TABLE default
4.100276591396
-10.327730795436201
-14.26864956339783
0.13210637964716698
4.492515426469314
-2.6837945533085694
-4.473557660634842
3.5422922230914513
1.0314781535196014
20.84264546033736
-8.18867520115416
-0.4094725223251452
-0.8985275653939457
-0.23421395942761378
-0.11369097867137168
-0.030612111190211146
-0.1111690093242047
-0.18643504131190963
-0.6569892800265907
-0.6110339256923827
-6.115745385050953
17.943670585109476
3.513264695897654
-1.015770522164397
0.14755553987771006
0.03451969899693671
-0.3200761990906666
2.1113617298257505
1.0918367791703159
0.7143021740896408
0.5849518485730786
0.5327239424930024
0.5070780229781282
0.4781901953453584
0.44153688695110277
0.39741178056710197
0.3477326855174266
0.2962463956645326
0.24497892024276507
0.19618313349197825
0.15080900292461205
0.10952048225670392
0.07261347350639664
0.04033345357912749
0.012569702993087633
-0.011155351329583924
-0.031081819755355875
-0.04752459062711542
-0.060811397862211104
-0.07154132509423868
-0.08001355261642606
-0.08658310712087425
-0.09151389784999608
-0.0952053014986184
-0.09785149337483838
-0.09967300325199636
-0.10081314043691446
-0.10146383312963927
-0.10170958672120196
-0.10162686877438235
-0.10124782765055074
-0.10059294204194752
-0.0996484550493807
-0.09834350190110015
-0.09661312131879492
-0.09434451871860569
-0.09142861870458477
-0.08763597043768838
-0.08280334278890682
-0.07669661379637578
-0.06910496134825171
-0.05956144851390769
-0.047822987540055595
-0.03367246039641699
-0.016485391452377252
0.0038884095097804824
0.027721518384715312
0.055297474114430846
0.08676827989982847
0.12202034388196561
0.1605745305573955
0.2017095464310391
0.24406643450331936
0.2860015838006623
0.32489654469077345
0.3577128693745131
0.37972785692920685
0.38560071590680206
0.37102831606707104
0.3304074131023204
0.2613683054363216
0.1653518506057925
0.06630766750222729
0.30728902821796844
0.33717061452092734
-0.11573714656013637
-0.13079943948013253
-0.10570535512391586
-0.11372780229948382
-0.12456353024137416
0.7269997387825543
0.834761725427119
0.046007270506539535
0.46799101154748035
0.41050734696060626
0.1669214628910029
0.0031366688239040015
-0.07378379845270859
-0.10001567391903518
-0.10518127231499276
-0.103852964868222
-0.10231052803076607
-0.09846832164148607
-0.08473012843988317
-0.04101671792383404
0.30863173663667953
0.10164156815105299
0.05153787112986398
0.21754434337178938
0.44228040793501616
0.5270414712544065
-0.10168036655234543
-0.09715932322659934
-0.10233728464411712
-0.08377000668667342
-0.0965755624829849
-0.07315791420022141
-0.011102327663138269
-0.0490750793294221
0.11625277765605138
0.32025822989122954
0.4115959586539415
0.49215553312083826
0.1334067718158194
2.256243746621567
2.4658842148377076
0.3162010447825492
0.007045941752141609
-0.3199528326109786
0.43353010341349063
-0.10230954769970227
-0.09981884026471977
-0.10035371804727607
-0.09159326976904243
-0.08708221543359884
-0.06878611534530313
-0.04648330343857973
0.04641118694696032
0.21338885459220905
0.041510521744974105
-0.14299730792784254
-0.11677288635864021
-0.12376119510985165
-0.10620445994408696
0.892616021520513
0.5831067609988418
-0.03178275469460944
0.23793720672139584
0.14188665745960677
0.45922610610656156
0.22203848098082102
0.06507796699728025
-0.09857956794859614
0.3884750777202433
-0.030156942438428654
-0.41751390884503087
-0.15089691667409214
0.032833074894914396
0.27463727441335595
-0.10461649295414897
-0.10806434632249257
-0.1049061019315653
-0.11263371909575651
-0.10508948353649675
-0.1129117505228753
-0.0822930062165999
-0.07287632478518818
0.8282370826629121
0.6979119990900468
-0.2006682243596425
-0.09797116703089559
-0.1424348295531295
-0.2098549195346814
-0.11468425977837268
0.32291998604916433
0.4004661603598898
0.5455847679291178
0.518208742767752
-0.3007930965710684
0.37596233365094184
0.46729198944468575
-0.10188333045339151
-0.10167020731103062
-0.10038502890796382
-0.09788823854675471
-0.1007276479737414
-0.09731253721591426
-0.08622901541256364
-0.09351735548254982
-0.09022641066298939
-0.07755275575139403
-0.07432039420404134
-0.05635099744409644
-0.024297351235120855
-0.05648791947704499
0.023012124120603907
0.08694559797827862
0.2687318303378029
0.17053225418634918
-0.6002055555256691
-0.5404004018209307
2.3324891610305603
1.9952133237033016
-0.01425735825522563
-0.23526584133960096
-0.12196078555212411
0.16889580909619276
-1.0064285288166248
0.26576571577975894
0.1801371869829398
0.03905086594865417
0.10135564260066708
0.34736219757450376
-0.008684319444191305
0.3932823963532388
0.2197150068117555
0.3663367858563958
0.5347506766808973
0.7167242441775461
0.4231117937816467
0.4970539901841819
0.32210796456543345
0.21875178329699246
0.12751921381715056
0.053843932016244905
-0.0016322894206648954
-0.04151191155064437
-0.06558852477114993
-0.04119317859995775
-0.0805891860533062
-0.06759113277235021
-0.08430334731522096
-0.09009150162918328
-0.09402489191073299
-0.09918920923254902
-0.09583184572164874
-0.0992206460828488
-0.10139490965510436
-0.10184361020515127
-0.10108341549804614
0.013839356920074123
0.13970756573244228
0.30797848305190767
-0.26982869697736944
0.09687450540465127
0.6181302600909504
0.5377275131524855
2.803641245253301
1.9883210013783261
0.38716987918865564
0.4280201239664531
0.47752159428385027
0.004780602870163619
0.30695853228080133
-0.024649601427365723
-0.28242466287451834
0.5891893005315048
0.5124021151991297
0.07569952319076047
-0.10322246035633775
-0.10472312727565822
-0.10084273201007209
-0.10382419512380786
-0.09306743180288175
-0.08988417115473145
-0.07166214313220967
-0.041609082753826805
0.3094423826452559
0.033955124038544796
1.2650001535191262
1.4602339633011896
0.2655939521565043
0.09019050064835545
0.18038623593961112
0.4148559104648659
-0.10536896235447729
-0.10433930005249853
-0.1101366588184948
-0.10448760294827689
-0.11189194719586851
-0.09790551172982297
-0.09883423321629141
-0.02803120503625978
0.14415472576217486
5.320999423523957
5.209113620693703
-0.012093327463720356
2.0940044611018895
0.48593036170384124
-0.10265782145731187
-0.10312143453262446
-0.10135356154035606
0.4010911438352892
-0.09984342184098134
-0.1026951536395794
-0.10099102635381337
-0.09589104254706107
-0.09127527610624893
-0.09484443757977613
-0.08667060521092576
-0.07952305266772451
-0.0672486103505825
-0.06522696170436244
-0.04217311602229168
0.011130154359655309
0.48724962629617796
0.06049584216775656
0.1628178051382991
0.24343739591994576
-0.06948058667620079
0.22266343541758005