# vtk DataFile Version 1.0
2D Simulation C++
ASCII
DATASET UNSTRUCTURED_GRID
FIELD FieldData 1
NODES 1 2 int
348 601

POINTS 348 double
0.0 0.5 0.0
0.0 1.0 0.0
2.0 1.0 0.0
2.0 0.5 0.0
0.0 0.528801679611206 0.0
0.0 0.564507782459259 0.0
0.0 0.6110168099403381 0.0
0.0 0.6721802353858948 0.0
0.0 0.7528436183929443 0.0
0.0 0.8593378663063049 0.0
0.16666941344738007 1.0 0.0
0.3333356976509094 1.0 0.0
0.5000020265579224 1.0 0.0
0.6666678786277771 1.0 0.0
0.8333337306976318 1.0 0.0
1.0 1.0 0.0
1.1666662693023682 1.0 0.0
1.3333321809768677 1.0 0.0
1.4999979734420776 1.0 0.0
1.6666642427444458 1.0 0.0
1.8333306312561035 1.0 0.0
2.0 0.8593378663063049 0.0
2.0 0.7528436183929443 0.0
2.0 0.6721802353858948 0.0
2.0 0.6110168099403381 0.0
2.0 0.564507782459259 0.0
2.0 0.528801679611206 0.0
0.029850948601961136 0.5 0.0
0.05970168858766556 0.5 0.0
0.08955242484807968 0.5 0.0
0.1194031685590744 0.5 0.0
0.14925390481948853 0.5 0.0
0.17910465598106384 0.5 0.0
0.20895539224147797 0.5 0.0
0.2388061285018921 0.5 0.0
0.2686568796634674 0.5 0.0
0.29850760102272034 0.5 0.0
0.32835835218429565 0.5 0.0
0.35820910334587097 0.5 0.0
0.3880598247051239 0.5 0.0
0.4179105758666992 0.5 0.0
0.44776129722595215 0.5 0.0
0.47761204838752747 0.5 0.0
0.5074627995491028 0.5 0.0
0.5373135209083557 0.5 0.0
0.5671642422676086 0.5 0.0
0.5970150232315063 0.5 0.0
0.6268657445907593 0.5 0.0
0.6567164659500122 0.5 0.0
0.6865672469139099 0.5 0.0
0.7164179682731628 0.5 0.0
0.7462686896324158 0.5 0.0
0.7761194705963135 0.5 0.0
0.8059701919555664 0.5 0.0
0.8358209133148193 0.5 0.0
0.865671694278717 0.5 0.0
0.89552241563797 0.5 0.0
0.9253731369972229 0.5 0.0
0.9552239179611206 0.5 0.0
0.9850746393203735 0.5 0.0
1.0149253606796265 0.5 0.0
1.0447760820388794 0.5 0.0
1.0746268033981323 0.5 0.0
1.1044776439666748 0.5 0.0
1.1343283653259277 0.5 0.0
1.1641790866851807 0.5 0.0
1.1940298080444336 0.5 0.0
1.2238805294036865 0.5 0.0
1.2537312507629395 0.5 0.0
1.2835819721221924 0.5 0.0
1.3134328126907349 0.5 0.0
1.3432835340499878 0.5 0.0
1.3731342554092407 0.5 0.0
1.4029849767684937 0.5 0.0
1.4328356981277466 0.5 0.0
1.4626864194869995 0.5 0.0
1.492537260055542 0.5 0.0
1.522387981414795 0.5 0.0
1.5522387027740479 0.5 0.0
1.5820894241333008 0.5 0.0
1.6119401454925537 0.5 0.0
1.6417908668518066 0.5 0.0
1.6716417074203491 0.5 0.0
1.701492428779602 0.5 0.0
1.731343150138855 0.5 0.0
1.761193871498108 0.5 0.0
1.7910445928573608 0.5 0.0
1.8208953142166138 0.5 0.0
1.8507460355758667 0.5 0.0
1.8805968761444092 0.5 0.0
1.910447597503662 0.5 0.0
1.940298318862915 0.5 0.0
1.970149040222168 0.5 0.0
1.7358819246292114 0.7499510645866394 0.0
0.2656642198562622 0.7486277222633362 0.0
0.49981194734573364 0.737183690071106 0.0
0.74151611328125 0.7359843254089355 0.0
0.9774143695831299 0.7371892929077148 0.0
1.201690912246704 0.7367381453514099 0.0
1.447761058807373 0.7383390665054321 0.0
1.8591958284378052 0.6421071290969849 0.0
0.14080412685871124 0.6421071290969849 0.0
1.588537573814392 0.6783608794212341 0.0
0.2553686201572418 0.6221352219581604 0.0
1.7466964721679688 0.6278358101844788 0.0
0.38199201226234436 0.6273008584976196 0.0
0.5013589859008789 0.6272794008255005 0.0
0.6207823157310486 0.6272526383399963 0.0
0.7401852607727051 0.627252459526062 0.0
0.8595882654190063 0.6272523999214172 0.0
0.9701492786407471 0.6212864518165588 0.0
1.0807102918624878 0.6272523999214172 0.0
1.2001131772994995 0.6272523999214172 0.0
1.3195161819458008 0.6272523999214172 0.0
1.4488563537597656 0.6310953497886658 0.0
1.9247323274612427 0.5706554055213928 0.0
0.07526770234107971 0.5706554055213928 0.0
1.5377081632614136 0.5910930037498474 0.0
1.6566967964172363 0.5934624075889587 0.0
1.8074009418487549 0.5708622932434082 0.0
0.1940300166606903 0.5737577676773071 0.0
1.0286364555358887 0.5665481686592102 0.0
1.14803946018219 0.5665481686592102 0.0
0.9116620421409607 0.5665481686592102 0.0
1.2674424648284912 0.5665481686592102 0.0
0.7922590970993042 0.5665481686592102 0.0
0.6728560328483582 0.5665482878684998 0.0
0.5534531474113464 0.5665481686592102 0.0
1.3892061710357666 0.5727682709693909 0.0
0.43402159214019775 0.5665869116783142 0.0
0.3146642744541168 0.5667200088500977 0.0
1.8656742572784424 0.5607567429542542 0.0
0.1343258023262024 0.5607567429542542 0.0
1.5970147848129272 0.5642029047012329 0.0
1.8783670663833618 0.7786769866943359 0.0
0.12163297086954117 0.7786769866943359 0.0
1.7164177894592285 0.562579333782196 0.0
1.4776118993759155 0.5620538592338562 0.0
1.5857784748077393 0.867691159248352 0.0
0.25373148918151855 0.5588531494140625 0.0
0.9701492786407471 0.5582930445671082 0.0
1.0895521640777588 0.5582930445671082 0.0
0.8507462739944458 0.5582930445671082 0.0
1.20895516872406 0.5582930445671082 0.0
0.7313433289527893 0.5582930445671082 0.0
1.3283581733703613 0.5582930445671082 0.0
0.6119403839111328 0.5582930445671082 0.0
0.49253740906715393 0.5582930445671082 0.0
0.37313446402549744 0.5582956075668335 0.0
0.36864349246025085 0.7376502752304077 0.0
0.602456271648407 0.7355343103408813 0.0
0.8441241383552551 0.7366551756858826 0.0
1.3355978727340698 0.7366551160812378 0.0
1.0895521640777588 0.7378703355789185 0.0
0.07051979005336761 0.6486480832099915 0.0
1.9294801950454712 0.6486480832099915 0.0
1.5086064338684082 0.6743985414505005 0.0
1.6785967350006104 0.6649783849716187 0.0
1.9543375968933105 0.5452249050140381 0.0
0.04566239193081856 0.5452249050140381 0.0
1.6567095518112183 0.5496091842651367 0.0
1.53738272190094 0.5491842031478882 0.0
0.91306072473526 0.8965699672698975 0.0
1.7782752513885498 0.5446287989616394 0.0
1.4163299798965454 0.5447981357574463 0.0
0.4287482798099518 0.8945969939231873 0.0
1.2610714435577393 0.8950135707855225 0.0
0.4313095211982727 0.6832783222198486 0.0
0.31561949849128723 0.6858259439468384 0.0
1.029850721359253 0.6781684160232544 0.0
0.9082015752792358 0.6848641633987427 0.0
1.1492537260055542 0.6781684160232544 0.0
0.7886138558387756 0.678956151008606 0.0
1.2709345817565918 0.684736430644989 0.0
0.6685023903846741 0.6868807673454285 0.0
1.4007169008255005 0.6702371835708618 0.0
0.5483440160751343 0.6792802214622498 0.0
0.19808045029640198 0.6887137293815613 0.0
1.797759771347046 0.6853783130645752 0.0
0.6811949610710144 0.8757594227790833 0.0
1.0189321041107178 0.8474968671798706 0.0
0.7922950983047485 0.8446238040924072 0.0
1.3765455484390259 0.8590760827064514 0.0
1.1571698188781738 0.8478953838348389 0.0
1.8954496383666992 0.5359624624252319 0.0
1.8360060453414917 0.5359931588172913 0.0
0.10455036163330078 0.5359624624252319 0.0
0.16417928040027618 0.5353734493255615 0.0
0.5530290007591248 0.8422092199325562 0.0
0.2832632064819336 0.5367912650108337 0.0
0.22469767928123474 0.5394234657287598 0.0
0.9405550956726074 0.5357381105422974 0.0
0.9997434020042419 0.5357381105422974 0.0
1.0600273609161377 0.5365630984306335 0.0
1.1191463470458984 0.5357381105422974 0.0
0.8802711367607117 0.5365630984306335 0.0
0.8211521506309509 0.5357381105422974 0.0
1.2385493516921997 0.5357381105422974 0.0
1.179430365562439 0.5365630984306335 0.0
0.7608681321144104 0.5365630984306335 0.0
0.7017492055892944 0.5357381105422974 0.0
1.2988333702087402 0.5365630984306335 0.0
1.357560396194458 0.5390686392784119 0.0
0.5823462605476379 0.5357381105422974 0.0
0.6414651870727539 0.5365630984306335 0.0
0.5220622420310974 0.5365630984306335 0.0
0.4629422128200531 0.535739541053772 0.0
0.3435409665107727 0.5357455015182495 0.0
0.4026572108268738 0.5365669131278992 0.0
0.21006634831428528 0.8590372204780579 0.0
1.7943172454833984 0.8627070188522339 0.0
0.06134982034564018 0.7191494703292847 0.0
1.938650131225586 0.7191494703292847 0.0
1.634666085243225 0.7584379315376282 0.0
0.3355695903301239 0.8387951850891113 0.0
1.537941336631775 0.7633647918701172 0.0
1.9670078754425049 0.574067234992981 0.0
0.032992132008075714 0.574067234992981 0.0
1.6862140893936157 0.5314788222312927 0.0
1.6272135972976685 0.5317342281341553 0.0
1.5077245235443115 0.5309156775474548 0.0
1.5668202638626099 0.5316618084907532 0.0
1.7466963529586792 0.5298213958740234 0.0
1.4473658800125122 0.5297333002090454 0.0
1.804386019706726 0.5275400876998901 0.0
1.9283779859542847 0.5282225012779236 0.0
1.8656879663467407 0.5267112255096436 0.0
0.13432854413986206 0.5271331071853638 0.0
0.07162196189165115 0.5282225012779236 0.0
0.25373148918151855 0.527070939540863 0.0
0.19419340789318085 0.5297109484672546 0.0
0.31349387764930725 0.5272363424301147 0.0
0.37313446402549744 0.5270199179649353 0.0
0.4329495429992676 0.5274069309234619 0.0
0.49253740906715393 0.5270196795463562 0.0
0.5523557066917419 0.5274024605751038 0.0
1.3898069858551025 0.5277745127677917 0.0
1.3283581733703613 0.5270196795463562 0.0
0.6119403839111328 0.5270196795463562 0.0
1.2685397863388062 0.5274024605751038 0.0
0.6717586517333984 0.5274024605751038 0.0
0.7313433289527893 0.5270196795463562 0.0
1.20895516872406 0.5270196795463562 0.0
0.7911616563796997 0.5274024605751038 0.0
0.8507462739944458 0.5270196795463562 0.0
1.1491369009017944 0.5274024605751038 0.0
1.0895521640777588 0.5270196795463562 0.0
0.9105646014213562 0.5274024605751038 0.0
0.9701492786407471 0.5270196795463562 0.0
1.0297338962554932 0.5274024605751038 0.0
1.4776118993759155 0.5259945392608643 0.0
1.597015619277954 0.5255197882652283 0.0
1.7164177894592285 0.525999903678894 0.0
1.6834615468978882 0.8477573990821838 0.0
1.5822722911834717 0.6086509227752686 0.0
0.20459823310375214 0.6270732283592224 0.0
1.8037469387054443 0.6209055185317993 0.0
0.09990309923887253 0.8589919805526733 0.0
1.9000968933105469 0.8589919805526733 0.0
1.75603187084198 0.5789161324501038 0.0
0.10896337777376175 0.5982794761657715 0.0
1.8910366296768188 0.5982794761657715 0.0
1.4950518608093262 0.605266273021698 0.0
1.7049394845962524 0.6007562279701233 0.0
1.4387125968933105 0.5775743722915649 0.0
1.489302158355713 0.851039469242096 0.0
0.15732239186763763 0.5961292386054993 0.0
1.8436260223388672 0.5944437384605408 0.0
0.4399496018886566 0.6259797215461731 0.0
1.022565245628357 0.6257523894309998 0.0
[...]
POINT_DATA 348
SCALARS Psi double
LOOKUP_TABLE default
1.0878984745059117
1.0
1.0
1.0766684692566426
1.0877880062308676
1.0875451104726888
1.0891468084440799
1.0938728055774962
1.103351076028598
1.1418217491790537
1.0
1.0
1.0
1.0
1.0
1.0
1.0
1.0
1.0
1.0
1.0
1.134268546394864
1.0942751242409658
1.0844750354831822
1.079881911372407
1.077714553798345
1.0768590541920269
1.0879812890901994
1.0867118737203598
1.0848223047272951
1.082420799961272
1.0794798105856331
1.0760237479536137
1.07212187373283
1.0678672938765623
1.0633834607860353
1.0587584764216045
1.0540920620728156
1.049463046890952
1.0449565223378583
1.040624393395561
1.0364944248356207
1.032599619288089
1.0289672844690536
1.025610940001572
1.0225183845118462
1.0196944968263202
1.0171381906735355
1.0148448620382091
1.0127905844151859
1.01096877918652
1.0093691715629332
1.0079826246132653
1.0067887562643614
1.005780375975829
1.0049494028548849
1.0042890027962366
1.0037866646418072
1.0034382993190756
1.0032411995659947
1.0031934442639983
1.0032914481784272
1.0035346311375266
1.0039285742433686
1.0044762170590074
1.005180781898269
1.0060462357461997
1.0070859529070195
1.0083062724644187
1.0097144700031628
1.011316260526927
1.01313455284583
1.0151740580343667
1.0174309700493602
1.0199346785756123
1.0226764930901482
1.025655503485553
1.0288722148436165
1.0323240682515769
1.0359903891850182
1.0398395377927847
1.0438338440270754
1.0479255363452384
1.0520543032562286
1.056143908295596
1.060107257991798
1.0638381740187939
1.0672402127748195
1.070204758710058
1.0726291927367753
1.0744756476862996
1.0757491274576876
1.0764613444357796
1.0467867111097477
1.0518854974995273
1.020119954567465
1.0058086488405238
1.0016730890732297
1.003643948714465
1.0139159671409284
1.0733682570847214
1.0821127466395295
1.0311074484642162
1.0635343109924487
1.056689605790544
1.042553003594727
1.0268241535057523
1.0156243623884142
1.0084497788026165
1.0043633587493614
1.0028457867716802
1.0030421303403585
1.0054010944040004
1.0102988518924465
1.019045707142145
1.076281597020838
1.0856765450456343
1.029251343432489
1.0445295116975004
1.0659083918864345
1.0740341916067107
1.003069060013697
1.0045811566254812
1.00381893054098
1.0086117114269162
1.0070315646224717
1.0132384594371575
1.0232041804416894
1.0157540903958486
1.037486020199043
1.055478417970921
1.0719808302860088
1.0811616401264945
1.0372069616075075
1.078243879475634
1.0863580194891431
1.053672817276495
1.0235734735172646
1.0130768691662628
1.0652546100949438
1.0031970524730118
1.003579888193564
1.0051657431279077
1.0063427129972862
1.0098477968555457
1.011873277050545
1.0179114426599611
1.03009474661212
1.0464794892479847
1.0356947694515555
1.0123546184430492
1.0031387426964238
1.007992742049628
1.0019375177825478
1.0902638557374238
1.0807843178728131
1.0226367967517491
1.0445797931518357
1.0766486529924708
1.0869297742305066
1.045499356402818
1.0301804044160827
1.0004324779457143
1.062223399494598
1.018259312227958
1.010523864373766
1.0014801910947344
1.0321300518410053
1.0494026491767912
1.0022866924228704
1.0028325832447516
1.0035487593324013
1.0056184817133793
1.0068375194662313
1.010584496684741
1.014016969341587
1.0195846246205789
1.071695917467307
1.063540204139434
1.0033690888747584
1.0005515289266016
1.0019091530081186
1.004473798831791
1.0011770794818948
1.073882678653496
1.0689326686853913
1.0837058532098605
1.0778577788647856
1.0080518454116585
1.060955664801595
1.069822466203312
1.0035449095528761
1.0031568981133812
1.0033514355710718
1.0041283491621866
1.0045480023594844
1.0061844091927705
1.0075849559331442
1.0055370177879102
1.0085721333130855
1.0117220718823774
1.0104033157148808
1.013927017822793
1.0208731770420247
1.0158334216377214
1.0270743050415618
1.0342521732263152
1.0515054291938795
1.0425620823573962
1.039556706561152
1.0362112339411218
1.0980435920039098
1.088474765997732
1.0302226293673076
1.0266177484462171
1.0193764487887331
1.07779818062444
1.0869960836179202
1.049814493464474
1.0417081050560844
1.027115335910243
1.0339262736258132
1.0581499446394114
1.0211277923836957
1.0654241818171057
1.0754785720491198
1.0715896555247872
1.0810291667556986
1.0859076136182222
1.0655604214028778
1.0740717861640963
1.0562842958538752
1.04703237127788
1.0383626599147835
1.0306044752124541
1.023898083915259
1.016320485811623
1.012123536430583
1.018279258700548
1.008927520372178
1.013700677872184
1.0100775781267815
1.0065003902887608
1.0073102832350653
1.0053049710572737
1.0047733073656622
1.0036843055083047
1.0039874088494385
1.0032948803011421
1.00319968993152
1.0240373575828998
1.0377827111537752
1.0540276655971688
1.0247321279254589
1.0340237284795006
1.0720977954053736
1.0654174776673138
1.0766798885028077
1.0694555700113673
1.0590427058656977
1.0841870038584402
1.0751055971259464
1.0242340643880596
1.051239823873972
1.0196470454202298
1.009131994055468
1.0790605294258155
1.0704032401573642
1.0344440063442926
1.002701771723288
1.0033116066653605
1.0039833364085753
1.0061442472404092
1.007590352498457
1.0117379897082415
1.013196772196863
1.0208948219763387
1.0530712580073476
1.0269044500744025
1.0769456125866192
1.0853521982253376
1.0490327200726108
1.0329780828114214
1.0415769128202004
1.0531510677116225
1.0023830257252762
1.0026693188057278
1.0039418911336473
1.005021975539447
1.0079147626328093
1.0097441058479253
1.0144741786151452
1.0255108295520199
1.0411378679621508
1.1079720339972972
1.0992860060360776
1.0766662395483473
1.087955370491585
1.0607630654084081
1.0029734870243028
1.0032515757368845
1.0031706622359369
1.0612209313493568
1.0037527086784617
1.004377022242904
1.0056003462581145
1.0053642798870406
1.0069008653554927
1.0083446693184093
1.0107080771129575
1.0101583380857002
1.0127990591731149
1.0154620518406445
1.0192794234283054
1.0265465388355388
1.0680748969585907
1.0320716499156877
1.042010080388028
1.0488854790191837
1.0174362726640074
1.045787325826832
1.0304818268431848
1.0386471657761405
1.00145701657544
1.0217583110289141
1.038965910382207
1.0837777927920247
1.074404664261899
1.0002569121773368
1.0282062276242914
1.0692428658326405
1.0781093475385521
1.0039401956853704
1.0875215093190689
1.0771331067684848
1.0872136409914417
1.078325113484062
1.0690638753648456
1.0624278431759806
1.06200601657345
1.0185975169905461
1.0010538007721421
1.0163453081958265
1.0065916817527123
1.0761908357874135
1.087210488862861
1.0528187222834886
1.0469710938931722

SCALARS Omega double
LOOKUP_TABLE default
4.100276591395544
-10.32773079543617
-14.268649563397986
0.13217857057097893
4.492515426468621
-2.6837945533088843
-4.473557660634748
3.542292223091528
1.0314781535196702
20.842645460337337
-8.188675201154119
-0.40947252232513875
-0.8985275653939321
-0.23421395942757992
-0.1136909786713336
-0.030612111190178048
-0.11116900932416471
-0.1864350413119007
-0.6569892800265773
-0.6110339256923558
-6.115745385051046
17.943670585109594
3.5124636782393672
-1.0379081270118895
0.14534828365017674
0.033512257695377766
-0.32203140247958917
2.1113617298253846
1.0918367791700696
0.7143021740894762
0.5849518485729664
0.5327239424929249
0.5070780229780737
0.4781901953453198
0.44153688695107524
0.3974117805670825
0.34773268551741293
0.2962463956645232
0.24497892024275886
0.19618313349197433
0.1508090029246099
0.10952048225670302
0.07261347350639674
0.04033345357912833
0.012569702993089038
-0.011155351329582095
-0.031081819755353735
-0.04752459062711307
-0.06081139786220861
-0.0715413250942361
-0.08001355261642346
-0.08658310712087164
-0.09151389784999357
-0.09520530149861602
-0.09785149337483616
-0.09967300325199432
-0.10081314043691264
-0.10146383312963766
-0.10170958672120056
-0.1016268687743812
-0.10124796093657702
-0.1005929094886319
-0.0996482927435656
-0.09834303166584638
-0.09661228012447642
-0.09434272394968399
-0.0914262585374507
-0.08763222668431225
-0.08279843107413194
-0.07668844523080384
-0.06909527064200098
-0.05954731729103405
-0.047802903249967776
-0.03366497388546374
-0.016472751712209188
0.003910499114034611
0.027743081704726554
0.055309120537453425
0.08677693338046956
0.12203690492204214
0.1605761313608357
0.20168960504347527
0.2440135057808178
0.2859350888697354
0.3247869460039556
0.35760137009317294
0.3795471549340624
0.38524800492439254
0.3706556219672233
0.3300023908605486
0.2610341029399606
0.16510919313861377
0.06635078647442892
0.315106678709751
0.3393627792575586
-0.11646412749211761
-0.13091185667442243
-0.10570544244127811
-0.11366535237417084
-0.12385496956468081
0.7178328075969823
0.8448250621504507
0.04691930011487018
0.46988162820799806
0.40812474717935665
0.1669496075582858
0.002897547175425461
-0.07395212630508596
-0.10007944145244563
-0.10519634428525254
-0.10385548595555887
-0.10230780758084589
-0.09843631749301159
-0.0846065328389837
-0.04068562454058524
0.3065098106910472
0.09488991775544134
0.05186250842975108
0.21730105434218613
0.4399174100869951
0.5280590909252777
-0.10168073739804001
-0.09715105264443269
-0.1023406554709976
-0.08372762102510756
-0.09659159909592063
-0.07320444395688144
-0.01117193271889193
-0.048931336381648274
0.11627850663337645
0.320747280716593
0.40938443047306455
0.4908519705420188
0.13352109534941922
2.2490601200616345
2.527400928682852
0.31560108615767174
0.007244176733273732
-0.3187831354448732
0.43428948388201055
-0.10231092622108381
-0.0998169280640539
-0.10036161191588745
-0.09157790155478078
-0.08711259275202687
-0.06873062135341006
-0.04655457285695008
0.046334058929396016
0.21351020278403873
0.04064205045433675
-0.14344316639388907
-0.11680355787946212
-0.12342029435511348
-0.10619346693416583
0.9676272328609221
0.5747828401966274
-0.03102886952373328
0.23799457140299846
0.14049951445145029
0.45038740922728454
0.22190937382063314
0.06523625353621736
-0.09857906644494932
0.38752322420554736
-0.03006943443441079
-0.4188839881073988
-0.15081365778136072
0.0325547039429888
0.2753749214094991
-0.10461616328969078
-0.10807518480278228
-0.1048814913046611
-0.11268902260608707
-0.10497213967851354
-0.11310599821853337
-0.0819065312013126
-0.07324263405403497
0.8361155033640376
0.6923071888276516
-0.20088340153445508
-0.09796264604996066
-0.14249513301137465
-0.20891313998481317
-0.11464430760697829
0.32160350023342354
0.3990826750053526
0.5432661528298515
0.518151606135818
-0.3016400703848633
0.37625886709555717
0.46768784739582275
-0.1018840762013609
-0.10167070349686112
-0.1003842107955586
-0.09788440007489137
-0.10072930314616081
-0.09731626898273701
-0.086206228297292
-0.09350530320948831
-0.09023276549148956
-0.07756313163718141
-0.07426981170367965
-0.05627397508185283
-0.02430827553348214
-0.05649859200342393
0.023020098190726274
0.0869776229382191
0.2689062158620156
0.17062922353080126
-0.6191909294917731
-0.5147470841169188
2.329445225118826
1.9777754326562464
-0.011509735355365067
-0.23816940700230027
-0.12062838988452937
0.16690677657345585
-1.02173220413265
0.26552628033287573
0.18017280045769518
0.03920614717656962
0.1014834852730367
0.3466251469721365
-0.008566668969857819
0.3920916325696288
0.2186064418608413
0.36523518411926925
0.5338230402322023
0.7124939981818076
0.4234154728675296
0.4972714401489669
0.32227161888160955
0.21880357136845546
0.12752218731498804
0.05381235952117514
-0.0016606519172512278
-0.041427650445645677
-0.06554031119323192
-0.041222420552530475
-0.08056138243522594
-0.06760899316182142
-0.08431587013587091
-0.09007820841112095
-0.09403104486061474
-0.0991924107517342
-0.09582606824290732
-0.09921886260678361
-0.10139610467726867
-0.10184407580574843
-0.10108332295891073
0.01396225084988168
0.13979943912240286
0.3076025263571047
-0.2638912731573805
0.09725913339108429
0.6218180596335112
0.5337798651870712
2.9039953778016634
2.155648207265879
0.3856460207454354
0.4315959595356068
0.47340738223764645
0.005161758004359872
0.3062370625431979
-0.024410384897526817
-0.28101069591497363
0.5921227818731986
0.5085895250222211
0.07552629316157375
-0.10322296887730915
-0.10472893921779271
-0.10082993819186152
-0.10385718316140596
-0.09299651549749004
-0.08998797085806604
-0.07147385155956874
-0.04182883895740438
0.3101615018917637
0.03413599037442271
1.2523254612617953
1.478574822790496
0.2651621003446943
0.09036934035609581
0.18033095470584326
0.41361737900018813
-0.10537196689888968
-0.10433475528591724
-0.11016426596226217
-0.1044455063240252
-0.11200116001573024
-0.09772746947776884
-0.09915262606973946
-0.028490043251689037
0.14423106337711847
5.598342302591987
5.403331021629135
-0.012855761299553006
2.097569030710221
0.48885287031240815
-0.1026592897309175
-0.1031238363448024
-0.1013519460579797
0.4019968996810299
-0.09983805538478388
-0.10270297647367922
-0.1010056688839512
-0.0958704840494651
-0.09124247914476181
-0.09487819303127963
-0.08672286982800433
-0.07944071603574157
-0.06713690872751547
-0.06531830849044798
-0.04228617850092756
0.010999425356937209
0.48867830817109514
0.06039491839182965
0.16287202191327985
0.2437090018556925
-0.06902117037216633
0.22262509022680066
0.06938332803352482
0.149141276146848
-0.10985028243037147
-0.16829937846686152
0.15224910600440478
0.3821709177777036
0.375189865240196
-0.08900149604135654
0.032410881777236146
0.4400053669957766
0.5321896093695891
-0.1340929809048864
0.46689768371748425
0.011219789281119216
-0.5101373601022167
0.3408516063694495
1.020318573090157
0.9271598518391089
0.3733238666502829
-0.02622250183074777
-0.17256911002192274
-0.05296720420535839
-0.16617295466226736
0.11856080318490834
1.2482118262419362
0.5729328676153945
-1.2167721124875104

SCALARS Vx_analytic double
LOOKUP_TABLE default
4.100276591395544
-10.32773079543617
-14.268649563397986
0.13210637964656932
4.492515426468621
-2.6837945533088843
-4.473557660634748
3.542292223091528
1.0314781535196702
20.842645460337337
-8.188675201154119
-0.40947252232513875
-0.8985275653939321
-0.23421395942757992
-0.1136909786713336
-0.030612111190178048
-0.11116900932416471
-0.1864350413119007
-0.6569892800265771
-0.6110339256923558
-6.115745385051046
17.943670585109594
3.513264695897671
-1.0157705221643758
0.14755553987781794
0.0345196989968366
-0.3200761990898925
2.1113617298253846
1.0918367791700696
0.7143021740894762
0.5849518485729664
0.5327239424929249
0.5070780229780737
0.4781901953453198
0.44153688695107524
0.3974117805670825
0.34773268551741293
0.2962463956645232
0.24497892024275886
0.19618313349197433
0.1508090029246099
0.10952048225670302
0.07261347350639674
0.04033345357912833
0.012569702993089038
-0.011155351329582095
-0.031081819755353735
-0.04752459062711307
-0.06081139786220861
-0.0715413250942361
-0.08001355261642346
-0.08658310712087164
-0.09151389784999357
-0.09520530149861602
-0.09785149337483616
-0.09967300325199432
-0.10081314043691264
-0.10146383312963766
-0.10170958672120056
-0.1016268687743812
-0.1012478276505501
-0.10059294204194677
-0.09964845504938045
-0.09834350190109997
-0.09661312131879528
-0.09434451871860658
-0.09142861870458581
-0.08763597043768916
-0.08280334278890836
-0.07669661379637785
-0.06910496134825386
-0.05956144851391012
-0.047822987540058336
-0.033672460396419926
-0.01648539145238056
0.003888409509776928
0.027721518384711746
0.05529747411442656
0.0867682798998241
0.12202034388196158
0.16057453055739165
0.20170954643103575
0.2440664345033176
0.28600158380066054
0.3248965446907763
0.3577128693745179
0.37972785692921784
0.38560071590682454
0.37102831606710235
0.3304074131023692
0.2613683054363913
0.16535185060589008
0.06630766750227345
0.30728902821797127
0.33717061452092595
-0.11573714656013144
-0.13079943948012465
-0.10570535512390773
-0.11372780229947903
-0.12456353024137336
0.7269997387825743
0.8347617254270859
0.04600727050653786
0.46799101154746536
0.41050734696060875
0.16692146289100093
0.0031366688239061287
-0.07378379845270495
-0.10001567391903114
-0.10518127231498908
-0.10385296486821924
-0.10231052803076435
-0.0984683216414857
-0.08473012843988428
-0.041016717923836495
0.30863173663674526
0.10164156815092068
0.051537871129860385
0.21754434337178688
0.4422804079350272
0.5270414712543683
-0.1016803665523443
-0.09715932322659944
-0.10233728464411497
-0.08377000668667484
-0.09657556248298205
-0.0731579142002185
-0.011102327663136334
-0.049075079329424696
0.11625277765605042
0.32025822989121955
0.41159595865397536
0.49215553312076116
0.13340677181581562
2.2562437466215837
2.465884214837709
0.3162010447825493
0.007045941752138161
-0.3199528326109648
0.43353010341346965
-0.10230954769970065
-0.09981884026471935
-0.10035371804727358
-0.09159326976904328
-0.0870822154335959
-0.06878611534530539
-0.046483303438577164
0.04641118694696117
0.21338885459220458
0.04151052174497591
-0.142997307927836
-0.11677288635863184
-0.12376119510984922
-0.10620445994408023
0.8926160215204787
0.5831067609988713
-0.03178275469461153
0.2379372067213947
0.1418866574597263
0.4592261061063068
0.22203848098081796
0.06507796699727596
-0.09857956794857038
0.3884750777202542
-0.030156942438431686
-0.41751390884502354
-0.15089691667407365
0.03283307489491635
0.2746372744133524
-0.10461649295414492
-0.10806434632248724
-0.10490610193156276
-0.11263371909575098
-0.1050894835364955
-0.1129117505228698
-0.08229300621660107
-0.07287632478518416
0.828237082662899
0.6979119990900541
-0.20066822435962525
-0.09797116703087577
-0.14243482955311335
-0.2098549195346699
-0.11468425977835615
0.3229199860492204
0.40046616035991367
0.5455847679289922
0.5182087427676904
-0.30079309657105985
0.3759623336509258
0.46729198944465483
-0.1018833304533899
-0.10167020731102952
-0.10038502890796328
-0.09788823854675481
-0.10072764797373934
-0.09731253721591185
-0.08622901541256495
-0.09351735548255054
-0.09022641066298671
-0.07755275575139131
-0.07432039420404325
-0.05635099744409889
-0.024297351235118832
-0.05648791947704245
0.02301212412060525
0.08694559797827844
0.26873183033779563
0.17053225418634627
-0.6002055555256598
-0.5404004018209241
2.3324891610305754
1.9952133237033238
-0.01425735825522316
-0.2352658413395956
-0.12196078555212199
0.16889580909626156
-1.0064285288168053
0.26576571577975705
0.18013718698293615
0.039050865948650336
0.10135564260066304
0.34736219757450687
-0.00868431944419469
0.3932823963532529
0.21971500681184553
0.3663367858564338
0.5347506766808078
0.7167242441773457
0.42311179378162406
0.49705399018413726
0.32210796456542223
0.2187517832969877
0.12751921381714929
0.053843932016245585
-0.0016322894206632036
-0.0415119115506471
-0.06558852477115239
-0.04119317859995543
-0.08058918605330781
-0.06759113277234767
-0.08430334731521823
-0.09009150162918433
-0.09402489191073045
-0.09918920923254683
-0.09583184572164893
-0.09922064608284865
-0.10139490965510259
-0.10184361020514994
-0.10108341549804539
0.01383935692007053
0.13970756573243875
0.3079784830519078
-0.26982869697735756
0.09687450540464784
0.6181302600909262
0.5377275131524974
2.8036412452533046
1.9883210013783463
0.38716987918866025
0.4280201239663828
0.4775215942838876
0.004780602870160407
0.30695853228080083
-0.02464960142736876
-0.28242466287450924
0.5891893005314575
0.512402115199151
0.07569952319076106
-0.10322246035633544
-0.10472312727565494
-0.10084273201007111
-0.10382419512380398
-0.09306743180288245
-0.08988417115472754
-0.07166214313221139
-0.04160908275382383
0.3094423826452491
0.03395512403854114
1.265000153519142
1.4602339633011783
0.26559395215650244
0.09019050064835163
0.1803862359396078
0.4148559104648685
-0.10536896235447259
-0.10433930005249513
-0.11013665881848939
-0.10448760294827522
-0.11189194719586307
-0.09790551172982298
-0.09883423321628654
-0.028031205036256775
0.14415472576217409
5.320999423523966
5.2091136206937705
-0.012093327463491938
2.094004461101474
0.4859303617038317
-0.1026578214573101
-0.1031214345326222
-0.10135356154035496
0.40109114383527433
-0.09984342184098072
-0.10269515363957663
-0.10099102635381042
-0.09589104254706107
-0.09127527610624969
-0.09484443757977286
-0.0866706052109225
-0.07952305266772605
-0.06724861035058449
-0.06522696170435942
-0.04217311602228897
0.01113015435965709
0.48724962629615376
0.06049584216775718
0.16281780513829697
0.24343739591994024
-0.06948058667620202
0.22266343541757797