# vtk DataFile Version 1.0
2D Simulation C++
ASCII
DATASET UNSTRUCTURED_GRID
FIELD FieldData 1
NODES 1 2 int
348 601

POINTS 348 double
0.0 0.5 0.0
0.0 1.0 0.0
2.0 1.0 0.0
2.0 0.5 0.0
0.0 0.528801679611206 0.0
0.0 0.564507782459259 0.0
0.0 0.6110168099403381 0.0
0.0 0.6721802353858948 0.0
0.0 0.7528436183929443 0.0
0.0 0.8593378663063049 0.0
0.16666941344738007 1.0 0.0
0.3333356976509094 1.0 0.0
0.5000020265579224 1.0 0.0
0.6666678786277771 1.0 0.0
0.8333337306976318 1.0 0.0
1.0 1.0 0.0
1.1666662693023682 1.0 0.0
1.3333321809768677 1.0 0.0
1.4999979734420776 1.0 0.0
1.6666642427444458 1.0 0.0
1.8333306312561035 1.0 0.0
2.0 0.8593378663063049 0.0
2.0 0.7528436183929443 0.0
2.0 0.6721802353858948 0.0
2.0 0.6110168099403381 0.0
2.0 0.564507782459259 0.0
2.0 0.528801679611206 0.0
0.029850948601961136 0.5 0.0
0.05970168858766556 0.5 0.0
0.08955242484807968 0.5 0.0
0.1194031685590744 0.5 0.0
0.14925390481948853 0.5 0.0
0.17910465598106384 0.5 0.0
0.20895539224147797 0.5 0.0
0.2388061285018921 0.5 0.0
0.2686568796634674 0.5 0.0
0.29850760102272034 0.5 0.0
0.32835835218429565 0.5 0.0
0.35820910334587097 0.5 0.0
0.3880598247051239 0.5 0.0
0.4179105758666992 0.5 0.0
0.44776129722595215 0.5 0.0
0.47761204838752747 0.5 0.0
0.5074627995491028 0.5 0.0
0.5373135209083557 0.5 0.0
0.5671642422676086 0.5 0.0
0.5970150232315063 0.5 0.0
0.6268657445907593 0.5 0.0
0.6567164659500122 0.5 0.0
0.6865672469139099 0.5 0.0
0.7164179682731628 0.5 0.0
0.7462686896324158 0.5 0.0
0.7761194705963135 0.5 0.0
0.8059701919555664 0.5 0.0
0.8358209133148193 0.5 0.0
0.865671694278717 0.5 0.0
0.89552241563797 0.5 0.0
0.9253731369972229 0.5 0.0
0.9552239179611206 0.5 0.0
0.9850746393203735 0.5 0.0
1.0149253606796265 0.5 0.0
1.0447760820388794 0.5 0.0
1.0746268033981323 0.5 0.0
1.1044776439666748 0.5 0.0
1.1343283653259277 0.5 0.0
1.1641790866851807 0.5 0.0
1.1940298080444336 0.5 0.0
1.2238805294036865 0.5 0.0
1.2537312507629395 0.5 0.0
1.2835819721221924 0.5 0.0
1.3134328126907349 0.5 0.0
1.3432835340499878 0.5 0.0
1.3731342554092407 0.5 0.0
1.4029849767684937 0.5 0.0
1.4328356981277466 0.5 0.0
1.4626864194869995 0.5 0.0
1.492537260055542 0.5 0.0
1.522387981414795 0.5 0.0
1.5522387027740479 0.5 0.0
1.5820894241333008 0.5 0.0
1.6119401454925537 0.5 0.0
1.6417908668518066 0.5 0.0
1.6716417074203491 0.5 0.0
1.701492428779602 0.5 0.0
1.731343150138855 0.5 0.0
1.761193871498108 0.5 0.0
1.7910445928573608 0.5 0.0
1.8208953142166138 0.5 0.0
1.8507460355758667 0.5 0.0
1.8805968761444092 0.5 0.0
1.910447597503662 0.5 0.0
1.940298318862915 0.5 0.0
1.970149040222168 0.5 0.0
1.7358819246292114 0.7499510645866394 0.0
0.2656642198562622 0.7486277222633362 0.0
0.49981194734573364 0.737183690071106 0.0
0.74151611328125 0.7359843254089355 0.0
0.9774143695831299 0.7371892929077148 0.0
1.201690912246704 0.7367381453514099 0.0
1.447761058807373 0.7383390665054321 0.0
1.8591958284378052 0.6421071290969849 0.0
0.14080412685871124 0.6421071290969849 0.0
1.588537573814392 0.6783608794212341 0.0
0.2553686201572418 0.6221352219581604 0.0
1.7466964721679688 0.6278358101844788 0.0
0.38199201226234436 0.6273008584976196 0.0
0.5013589859008789 0.6272794008255005 0.0
0.6207823157310486 0.6272526383399963 0.0
0.7401852607727051 0.627252459526062 0.0
0.8595882654190063 0.6272523999214172 0.0
0.9701492786407471 0.6212864518165588 0.0
1.0807102918624878 0.6272523999214172 0.0
1.2001131772994995 0.6272523999214172 0.0
1.3195161819458008 0.6272523999214172 0.0
1.4488563537597656 0.6310953497886658 0.0
1.9247323274612427 0.5706554055213928 0.0
0.07526770234107971 0.5706554055213928 0.0
1.5377081632614136 0.5910930037498474 0.0
1.6566967964172363 0.5934624075889587 0.0
1.8074009418487549 0.5708622932434082 0.0
0.1940300166606903 0.5737577676773071 0.0
1.0286364555358887 0.5665481686592102 0.0
1.14803946018219 0.5665481686592102 0.0
0.9116620421409607 0.5665481686592102 0.0
1.2674424648284912 0.5665481686592102 0.0
0.7922590970993042 0.5665481686592102 0.0
0.6728560328483582 0.5665482878684998 0.0
0.5534531474113464 0.5665481686592102 0.0
1.3892061710357666 0.5727682709693909 0.0
0.43402159214019775 0.5665869116783142 0.0
0.3146642744541168 0.5667200088500977 0.0
1.8656742572784424 0.5607567429542542 0.0
0.1343258023262024 0.5607567429542542 0.0
1.5970147848129272 0.5642029047012329 0.0
1.8783670663833618 0.7786769866943359 0.0
0.12163297086954117 0.7786769866943359 0.0
1.7164177894592285 0.562579333782196 0.0
1.4776118993759155 0.5620538592338562 0.0
1.5857784748077393 0.867691159248352 0.0
0.25373148918151855 0.5588531494140625 0.0
0.9701492786407471 0.5582930445671082 0.0
1.0895521640777588 0.5582930445671082 0.0
0.8507462739944458 0.5582930445671082 0.0
1.20895516872406 0.5582930445671082 0.0
0.7313433289527893 0.5582930445671082 0.0
1.3283581733703613 0.5582930445671082 0.0
0.6119403839111328 0.5582930445671082 0.0
0.49253740906715393 0.5582930445671082 0.0
0.37313446402549744 0.5582956075668335 0.0
0.36864349246025085 0.7376502752304077 0.0
0.602456271648407 0.7355343103408813 0.0
0.8441241383552551 0.7366551756858826 0.0
1.3355978727340698 0.7366551160812378 0.0
1.0895521640777588 0.7378703355789185 0.0
0.07051979005336761 0.6486480832099915 0.0
1.9294801950454712 0.6486480832099915 0.0
1.5086064338684082 0.6743985414505005 0.0
1.6785967350006104 0.6649783849716187 0.0
1.9543375968933105 0.5452249050140381 0.0
0.04566239193081856 0.5452249050140381 0.0
1.6567095518112183 0.5496091842651367 0.0
1.53738272190094 0.5491842031478882 0.0
0.91306072473526 0.8965699672698975 0.0
1.7782752513885498 0.5446287989616394 0.0
1.4163299798965454 0.5447981357574463 0.0
0.4287482798099518 0.8945969939231873 0.0
1.2610714435577393 0.8950135707855225 0.0
0.4313095211982727 0.6832783222198486 0.0
0.31561949849128723 0.6858259439468384 0.0
1.029850721359253 0.6781684160232544 0.0
0.9082015752792358 0.6848641633987427 0.0
1.1492537260055542 0.6781684160232544 0.0
0.7886138558387756 0.678956151008606 0.0
1.2709345817565918 0.684736430644989 0.0
0.6685023903846741 0.6868807673454285 0.0
1.4007169008255005 0.6702371835708618 0.0
0.5483440160751343 0.6792802214622498 0.0
0.19808045029640198 0.6887137293815613 0.0
1.797759771347046 0.6853783130645752 0.0
0.6811949610710144 0.8757594227790833 0.0
1.0189321041107178 0.8474968671798706 0.0
0.7922950983047485 0.8446238040924072 0.0
1.3765455484390259 0.8590760827064514 0.0
1.1571698188781738 0.8478953838348389 0.0
1.8954496383666992 0.5359624624252319 0.0
1.8360060453414917 0.5359931588172913 0.0
0.10455036163330078 0.5359624624252319 0.0
0.16417928040027618 0.5353734493255615 0.0
0.5530290007591248 0.8422092199325562 0.0
0.2832632064819336 0.5367912650108337 0.0
0.22469767928123474 0.5394234657287598 0.0
0.9405550956726074 0.5357381105422974 0.0
0.9997434020042419 0.5357381105422974 0.0
1.0600273609161377 0.5365630984306335 0.0
1.1191463470458984 0.5357381105422974 0.0
0.8802711367607117 0.5365630984306335 0.0
0.8211521506309509 0.5357381105422974 0.0
1.2385493516921997 0.5357381105422974 0.0
1.179430365562439 0.5365630984306335 0.0
0.7608681321144104 0.5365630984306335 0.0
0.7017492055892944 0.5357381105422974 0.0
1.2988333702087402 0.5365630984306335 0.0
1.357560396194458 0.5390686392784119 0.0
0.5823462605476379 0.5357381105422974 0.0
0.6414651870727539 0.5365630984306335 0.0
0.5220622420310974 0.5365630984306335 0.0
0.4629422128200531 0.535739541053772 0.0
0.3435409665107727 0.5357455015182495 0.0
0.4026572108268738 0.5365669131278992 0.0
0.21006634831428528 0.8590372204780579 0.0
1.7943172454833984 0.8627070188522339 0.0
0.06134982034564018 0.7191494703292847 0.0
1.938650131225586 0.7191494703292847 0.0
1.634666085243225 0.7584379315376282 0.0
0.3355695903301239 0.8387951850891113 0.0
1.537941336631775 0.7633647918701172 0.0
1.9670078754425049 0.574067234992981 0.0
0.032992132008075714 0.574067234992981 0.0
1.6862140893936157 0.5314788222312927 0.0
1.6272135972976685 0.5317342281341553 0.0
1.5077245235443115 0.5309156775474548 0.0
1.5668202638626099 0.5316618084907532 0.0
1.7466963529586792 0.5298213958740234 0.0
1.4473658800125122 0.5297333002090454 0.0
1.804386019706726 0.5275400876998901 0.0
1.9283779859542847 0.5282225012779236 0.0
1.8656879663467407 0.5267112255096436 0.0
0.13432854413986206 0.5271331071853638 0.0
0.07162196189165115 0.5282225012779236 0.0
0.25373148918151855 0.527070939540863 0.0
0.19419340789318085 0.5297109484672546 0.0
0.31349387764930725 0.5272363424301147 0.0
0.37313446402549744 0.5270199179649353 0.0
0.4329495429992676 0.5274069309234619 0.0
0.49253740906715393 0.5270196795463562 0.0
0.5523557066917419 0.5274024605751038 0.0
1.3898069858551025 0.5277745127677917 0.0
1.3283581733703613 0.5270196795463562 0.0
0.6119403839111328 0.5270196795463562 0.0
1.2685397863388062 0.5274024605751038 0.0
0.6717586517333984 0.5274024605751038 0.0
0.7313433289527893 0.5270196795463562 0.0
1.20895516872406 0.5270196795463562 0.0
0.7911616563796997 0.5274024605751038 0.0
0.8507462739944458 0.5270196795463562 0.0
1.1491369009017944 0.5274024605751038 0.0
1.0895521640777588 0.5270196795463562 0.0
0.9105646014213562 0.5274024605751038 0.0
0.9701492786407471 0.5270196795463562 0.0
1.0297338962554932 0.5274024605751038 0.0
1.4776118993759155 0.5259945392608643 0.0
1.597015619277954 0.5255197882652283 0.0
1.7164177894592285 0.525999903678894 0.0
1.6834615468978882 0.8477573990821838 0.0
1.5822722911834717 0.6086509227752686 0.0
0.20459823310375214 0.6270732283592224 0.0
1.8037469387054443 0.6209055185317993 0.0
0.09990309923887253 0.8589919805526733 0.0
1.9000968933105469 0.8589919805526733 0.0
1.75603187084198 0.5789161324501038 0.0
0.10896337777376175 0.5982794761657715 0.0
1.8910366296768188 0.5982794761657715 0.0
1.4950518608093262 0.605266273021698 0.0
1.7049394845962524 0.6007562279701233 0.0
1.4387125968933105 0.5775743722915649 0.0
1.489302158355713 0.851039469242096 0.0
0.15732239186763763 0.5961292386054993 0.0
1.8436260223388672 0.5944437384605408 0.0
0.4399496018886566 0.6259797215461731 0.0
1.022565245628357 0.6257523894309998 0.0
[...]
POINT_DATA 348
SCALARS Psi double
LOOKUP_TABLE default
1.0878994183120794
1.0
1.0
1.0766703079514237
1.087788943830776
1.0875460246935391
1.0891476688722317
1.0938735524076328
1.1033516195622028
1.1418220052485748
1.0
1.0
1.0
1.0
1.0
1.0
1.0
1.0
1.0
1.0
1.0
1.134268968188842
1.0942760888525231
1.0844764167793028
1.0798835451123812
1.0777163238011986
1.0768608804577322
1.0879822400281076
1.0867128610496724
1.0848233562993568
1.0824219417948466
1.0794810690621865
1.0760251475704663
1.0721234380459534
1.0678690433141744
1.0633854159519185
1.0587606552833422
1.0540944796853815
1.0494657154082179
1.0449594537586673
1.0406275960658364
1.0364979038343038
1.0326033765404141
1.0289713219131924
1.0256152557714526
1.0225229729795273
1.0196993494202713
1.0171432994099014
1.0148502155643937
1.012796167574065
1.0109745746816472
1.0093751635327461
1.007988794664268
1.0067950822526222
1.005786834625866
1.0049559731270354
1.0042956623119106
1.0037933878143201
1.0034450606252
1.0032479765756392
1.00320021510035
1.0032981884301195
1.00354131612449
1.003935183016593
1.004482730158184
1.0051871778372343
1.0060524941216564
1.007092057461406
1.008312209347918
1.0097202238546168
1.0113218177589804
1.013139904702474
1.0151791982280078
1.0174358862971533
1.0199393710328384
1.0226809595145816
1.0256597419638347
1.0288762270679168
1.0323278579416817
1.0359939623107364
1.0398429007683503
1.0438370053035682
1.0479285061113048
1.0520570936161489
1.056146531978043
1.0601097283451266
1.0638405051998283
1.0672424222220394
1.070206861472509
1.0726312061441037
1.0744775899828953
1.0757510149877219
1.0764631965026534
1.0467879917862906
1.0518864690763101
1.0201221354293457
1.005811990079646
1.0016768748398497
1.0036474020713275
1.0139184433659483
1.073369949000195
1.082113750403474
1.0311099766729053
1.0635359086062117
1.0566917525457897
1.042555447647298
1.0268275421071833
1.0156286794327969
1.008454865587757
1.0043689604847361
1.0028516553841007
1.0030478286744555
1.0054064078685794
1.0103035486997236
1.0190495479929667
1.0762834231948135
1.0856775194154136
1.0292549286324664
1.0445323189868994
1.0659105445311787
1.0740355943979498
1.0030755381250445
1.0045873476212142
1.003825348941439
1.0086173179879592
1.007037561898937
1.0132437099830924
1.0232084558486025
1.015758857530045
1.0374892273410934
1.055480623950418
1.0719828146187986
1.081162797301401
1.0372102899962183
1.0782447256465808
1.0863585306955617
1.053675416537983
1.0235776631200022
1.0130774611328817
1.0652563940394082
1.003203594751359
1.0035863120720372
1.0051720409324432
1.006348684901533
1.0098534932712253
1.0118785446112473
1.0179162548640488
1.0300985093210524
1.0464821898681314
1.0356962607608704
1.0123573488356032
1.0031423728480968
1.0079957045582488
1.0019411994821446
1.0902646818883603
1.0807858527902352
1.0226398014080245
1.044581998766148
1.0766504865349265
1.0869307246725284
1.0455023458187025
1.0301842107151804
1.0004333247288562
1.0622257392774426
1.0182640302308468
1.010524280706933
1.0014809084937875
1.0321324106771694
1.0494042603514053
1.0022916255145604
1.0028373577172573
1.0035534583010683
1.005623019197306
1.0068416464061412
1.0105883378327134
1.0140206402622436
1.019587815584138
1.071696958741739
1.0635418086784112
1.0033700300102286
1.0005530909182105
1.0019106322620759
1.0044747386433532
1.0011785323530826
1.0738846297743287
1.0689347945321868
1.0837069333539493
1.077859088983577
1.0080528741667343
1.060957701047452
1.0698241006656974
1.0035515792093583
1.0031635977943458
1.0033580706217935
1.0041348388834936
1.0045545410507923
1.0061907333751676
1.0075909107568957
1.0055432699626743
1.00857814286791
1.0117277005559924
1.0104089021549234
1.0139321942323312
1.0208778467988604
1.0158385893633912
1.0270784286015482
1.0342557512967487
1.0515079426277205
1.0425651078565263
1.0395569926038788
1.03621162518742
1.0980442361089706
1.088475928403087
1.030224147631766
1.026618341879876
1.0193782491273913
1.0777999430503098
1.0869969951756893
1.0498173465142773
1.041711332135804
1.0271194219566149
1.0339299215506987
1.058152467063616
1.021132339110288
1.0654264398526467
1.0754804657359431
1.0715916960871419
1.0810303552744194
1.0859086169167242
1.0655622561877014
1.0740732532680721
1.0562865750983064
1.0470351475063964
1.0383659751429812
1.0306083415407366
1.0239025033482791
1.0163254639273283
1.012128947700275
1.018284201353447
1.008933322555413
1.0137061068653985
1.0100834278304724
1.0065065247290916
1.007316486615042
1.0053114373978573
1.0047797148832858
1.0036909026992862
1.003994052079337
1.0033015992204635
1.003206396427027
1.0240416792452016
1.0377861546124012
1.0540303516070304
1.0247327490178977
1.034026900259147
1.0720991035120344
1.0654194405651887
1.0766801239048367
1.0694559431757404
1.0590450491188752
1.084188016304741
1.0751074053100687
1.0242378422419363
1.0512423217211824
1.0196514264086578
1.0091329068638204
1.0790617124947184
1.0704051846161053
1.0344469156963727
1.002707582462156
1.0033173741518384
1.0039889004900642
1.0061496499995763
1.007595398258631
1.0117427322836485
1.0132012284389327
1.0208986950811993
1.0530732121614177
1.0269083622385555
1.0769469433698005
1.0853529811060492
1.0490354820391619
1.0329816112521057
1.0415800035388925
1.053152881733807
1.002388051198513
1.0026741573712463
1.0039466446610865
1.005026489053419
1.0079190750291023
1.0097480642230914
1.0144777964385256
1.0255136535810068
1.041139880137275
1.1079724630360341
1.0992867402500126
1.076668078591059
1.0879563137927188
1.0607644516660466
1.0029798032837662
1.0032578381530282
1.003176880229696
1.0612227986169633
1.003758836514191
1.004383146935965
1.0056063303025313
1.0053701220349165
1.006906504324074
1.0083502806053979
1.0107134238899005
1.0101635423263793
1.012803984042382
1.0154668599151064
1.019283878747509
1.026550358334137
1.0680764882741558
1.0320750787007875
1.0420128690535129
1.048887917204182
1.0174395346591614
1.0457903729147806
1.0304857058905346
1.0386499316707682
1.0014596354377936
1.0217595925670078
1.0389689520192802
1.0837788458192654
1.0744065584586098
1.0002574607673747
1.0282094256092766
1.069244923936555
1.078110610354745
1.003942420225978
1.0875224382563413
1.0771349149374805
1.0872145430992939
1.0783268240445574
1.0690646208274528
1.0624289591982443
1.0620084050382206
1.018602300822431
1.0010542323916556
1.0163495753532859
1.00659390191706
1.0761926998617626
1.0872114552101841
1.0528188137327472
1.046971226010418

SCALARS Omega double
LOOKUP_TABLE default
4.100250794637233
-10.327758808728275
-14.268711629666665
0.13216976514446294
4.492509852415908
-2.6838251019113235
-4.47358098080698
3.5422773323843164
1.031480101301205
20.842646890002282
-8.188705173634013
-0.40951725530129257
-0.8986024292524047
-0.23433121158244433
-0.11383177730591734
-0.030761648945778233
-0.11130095522040803
-0.18655021444223485
-0.6570757124412804
-0.6110901500963393
-6.1157879861101065
17.94364219553504
3.512467399303256
-1.037906582260711
0.1453613049181064
0.03350906436844633
-0.32200561391577315
2.1113444394880623
1.0918218848680086
0.7142900129138812
0.5849432859792323
0.5327196720902672
0.5070786330088246
0.4781962504227714
0.44154887249256053
0.3974302197057632
0.3477580190250617
0.29627900159556714
0.24501908560338
0.19623116543968155
0.15086508640649574
0.10958470815795306
0.07268583028497268
0.04041395907849555
0.012658248707317868
-0.01105898930743
-0.030977956133091015
-0.04741348309618
-0.060693412104274834
-0.0714169479282345
-0.07988333064216153
-0.0864474984181271
-0.09137344054142343
-0.09506066424603471
-0.0977033719095835
-0.09952198177242984
-0.10065984502372773
-0.10130901248807576
-0.10155398004187452
-0.10147108314677485
-0.10109258067527023
-0.10043862777253991
-0.09949582009254943
-0.09819293203859636
-0.0964650668325336
-0.094199008438175
-0.09128662336649954
-0.0874971006005143
-0.08266816269136203
-0.07656346691152789
-0.06897596406347503
-0.059433889830648644
-0.04769548462669762
-0.03356396258597758
-0.016378069498055526
0.003998810066771944
0.027824966509315464
0.05538464415907044
0.08684621658429886
0.12210013678523929
0.16063349552746714
0.201741344263127
0.24405990547957113
0.28597648962936834
0.32482368843207166
0.357633797750285
0.37957560801055007
0.38527291084355886
0.3706772860386527
0.33002113392313515
0.2610502272995054
0.16512281041427762
0.06636013452911954
0.3150951264212145
0.33934933012557267
-0.11645543893561827
-0.1308848802389183
-0.10567363629230879
-0.11364057213372301
-0.12384785626287002
0.7178419583630758
0.8448158516511751
0.04694237015174874
0.46988875624703474
0.4081449572185502
0.16698002099803194
0.00295333351472108
-0.07387215312892029
-0.09998018021950182
-0.10508472068936534
-0.10373677032349002
-0.10219565201663304
-0.09833495386086911
-0.08452170305540799
-0.040623674590636656
0.3065226946968701
0.09487506868596117
0.05192244788406854
0.21734025367782617
0.43994017833905646
0.5280603559743624
-0.10153731116052227
-0.09701644430557405
-0.1021978548557491
-0.0836098383037987
-0.09645938845125
-0.07309217378813318
-0.011086567250001712
-0.04883759237026107
0.1163335084105215
0.3207730085285108
0.40940245343564485
0.4908446754709751
0.13357594447267196
2.2490434838710636
2.5273851178602293
0.31563618028919443
0.007322753079543196
-0.3188343060139968
0.4343025508584862
-0.10216455862918156
-0.09967479896123844
-0.10022092767531497
-0.09144910055812464
-0.08698770398938246
-0.06862186529257326
-0.046453819822594236
0.046405274735802526
0.21355067172412706
0.040638485704360884
-0.14342531152232232
-0.11677304447788701
-0.12340486074757187
-0.10616470361005881
0.9676130930079264
0.5747888938454112
-0.03099457069824746
0.23801266424905398
0.14051145362014805
0.4503703944790583
0.2219555370906999
0.06530491199010248
-0.09867606945902559
0.3875516059452667
-0.02997522326013942
-0.41893307248649014
-0.1509004529726776
0.0325776756803363
0.27537976671548087
-0.1045362848244441
-0.10800004014833993
-0.10480797259349259
-0.11261640906701924
-0.10491448582382278
-0.11305052991308022
-0.08185596236687544
-0.07319970374904844
0.8361075559978525
0.692311067099771
-0.20095339514286903
-0.0980266169203766
-0.1425530709399579
-0.20897722264103955
-0.11470722825266122
0.3216202538413473
0.3991050218770945
0.5432554105389176
0.5181493439339794
-0.30168440389606904
0.376279753077897
0.4676962343825012
-0.10173187951845007
-0.10151819867866578
-0.10023404130120761
-0.09773869983228027
-0.10058028313088134
-0.09717271877019411
-0.08607626280067265
-0.09336670575440313
-0.09009763785572367
-0.07743832752729651
-0.07415047746404692
-0.05616644830276576
-0.02421020629434761
-0.056386567646853666
0.023102585061025024
0.08704436595202754
0.26894154467902043
0.17067976907066063
-0.6192205730003326
-0.5147848386426993
2.3294346912333173
1.9777733738708012
-0.011521055815995
-0.2382013515333573
-0.12063859920159967
0.16691553110077675
-1.021752899582743
0.26556915456795027
0.18022603180478206
0.03928330813928562
0.10154840026324155
0.34665887661647804
-0.008476530806299313
0.39211788464418595
0.2186207982993367
0.365254888171138
0.5338163672831985
0.7124798261767694
0.423430147463247
0.4972743889312674
0.3222999404727302
0.21884681335074396
0.12758137261132557
0.05388759388225059
-0.0015694974929256313
-0.041325318081449625
-0.06542571805074965
-0.041116458753225206
-0.0804355457772645
-0.06748942023099559
-0.08418476020475814
-0.08994277156764613
-0.09389034734515016
-0.09904483466914533
-0.0956825556136897
-0.09906963979059084
-0.10124404920906506
-0.10169046923900615
-0.10093053019644668
0.014046113662289106
0.13985878163781237
0.3076408299190112
-0.2639306382845217
0.09730665681878987
0.6218170581818391
0.5337961109987338
2.9039753757503894
2.155614570123749
0.38567370123227623
0.43158464740526836
0.4734203139726653
0.005225492454685831
0.30626776930131766
-0.024327706495228495
-0.2810616059370231
0.5921174779959746
0.5086061867300965
0.07556944795142273
-0.10310696613047002
-0.10461309837050123
-0.1007212572825743
-0.10374974785922668
-0.09290204476246137
-0.0898968755585169
-0.0713946606166514
-0.041760029903768675
0.3101783890160777
0.034206527411872266
1.2523241396289262
1.4785625674134895
0.2652014093315698
0.09042933049345464
0.18037915035518265
0.4136252442982395
-0.10528811913252269
-0.10425777119132983
-0.11008713693004848
-0.10437625950840794
-0.11193263331390532
-0.09767170477343351
-0.09909986922426121
-0.02845517390931077
0.14424639801392922
5.598333712619296
5.403315625453339
-0.012842546436490274
2.0975538168077197
0.4888531684228077
-0.10252244608681159
-0.10298846635112739
-0.1012187708905039
0.4020123264825497
-0.0997074108393144
-0.10257065835610782
-0.10087650708297934
-0.09574835585910088
-0.09112589856355874
-0.09475884008252208
-0.08661019503068978
-0.07933650281091567
-0.06704026709780334
-0.06522018731183778
-0.042197419555706744
0.01107053462869904
0.48868548612566903
0.06045523266431888
0.16291411095414568
0.2437411171432034
-0.06898207453683056
0.22267346443144687
0.06945486536292386
0.1491764869709187
-0.10986666861825563
-0.16831727430497875
0.15229435453245102
0.3821597200789827
0.37520508227911914
-0.08911150675721434
0.032456032239827376
0.4400255317831606
0.5321861944648183
-0.13411445120782553
0.4668789356270835
0.011230143547738455
-0.510154430617742
0.3408618480941453
1.0203032299144712
0.9271479638788924
0.37335389517809
-0.02612549336771967
-0.17267248770590346
-0.05289183645259385
-0.16618564887650844
0.11857360115217257
1.2481961505055668
0.5729118932365068
-1.2168179239188832

SCALARS Vx_analytic double
LOOKUP_TABLE default
4.100250794637233
-10.327758808728275
-14.268711629666665
0.13209759837261487
4.492509852415908
-2.6838251019113235
-4.47358098080698
3.5422773323843164
1.031480101301205
20.842646890002282
-8.188705173634013
-0.40951725530129257
-0.8986024292524047
-0.23433121158244433
-0.11383177730591734
-0.030761648945778233
-0.11130095522040803
-0.18655021444223485
-0.6570757124412802
-0.6110901500963393
-6.1157879861101065
17.94364219553504
3.5132675823014363
-1.0157704571385087
0.14756839174258668
0.034516603417049076
-0.3200506221511404
2.1113444394880623
1.0918218848680086
0.7142900129138812
0.5849432859792323
0.5327196720902672
0.5070786330088246
0.4781962504227714
0.44154887249256053
0.3974302197057632
0.3477580190250617
0.29627900159556714
0.24501908560338
0.19623116543968155
0.15086508640649574
0.10958470815795306
0.07268583028497268
0.04041395907849555
0.012658248707317868
-0.01105898930743
-0.030977956133091015
-0.04741348309618
-0.060693412104274834
-0.0714169479282345
-0.07988333064216153
-0.0864474984181271
-0.09137344054142343
-0.09506066424603471
-0.0977033719095835
-0.09952198177242984
-0.10065984502372773
-0.10130901248807576
-0.10155398004187452
-0.10147108314677485
-0.10109244826461608
-0.10043866529957618
-0.09949599210697525
-0.09819341565697172
-0.09646592579323203
-0.09420082497101123
-0.09128901009025298
-0.08750087377563337
-0.08267310789481537
-0.07657167219959463
-0.06898569626099196
-0.0594480678615398
-0.04771561821820171
-0.03357148760847221
-0.01639074951129757
0.003976676126142031
0.02780335696737758
0.05537295190835493
0.08683751802021222
0.1220835295658323
0.16063185073364988
0.20176124450641467
0.24411279605555566
0.28604294608763775
0.32493325219907043
0.357745269192391
0.3797562856949283
0.38562558881142256
0.37104994921367174
0.33042612986636344
0.2613844071249905
0.1653654566615219
0.06631704124336925
0.30727808002727747
0.33715743787317776
-0.1157280635112878
-0.1307721955501677
-0.10567353214527388
-0.11370324031298215
-0.12455662059217584
0.72700878240844
0.8347528887217879
0.04602999691692317
0.46799836588724275
0.41052742000038206
0.16695215078415115
0.0031927528956195803
-0.07370352722678818
-0.09991620722636012
-0.10506952448364595
-0.10373421731916346
-0.10219844397562598
-0.09836714156397072
-0.08464557673806693
-0.04095509525301058
0.308644497672629
0.10162641904338672
0.05159752490881134
0.21758326819954024
0.4423029542189805
0.5270428073450095
-0.10153695278334306
-0.09702481365106524
-0.10219444209169078
-0.08365240030164606
-0.09644326257178763
-0.07304551199901771
-0.011016802807764308
-0.04898158252274052
0.1163079388749783
0.3202840836043321
0.41161382650007783
0.49214819287564326
0.1334613908766202
2.256230109374453
2.46586800064387
0.31623594708725533
0.007124287044637301
-0.32000392087300206
0.43354326462096865
-0.10216316329647596
-0.09967675714952644
-0.10021297062775332
-0.09146458006894424
-0.08695721943992389
-0.06867752645496558
-0.04638240940323846
0.04648255565330203
0.21342945820766338
0.041507388495134176
-0.1429790418792926
-0.11674219748287254
-0.12374606134776613
-0.10617578171959642
0.8926034869942271
0.5831124992816688
-0.03174877473116587
0.2379550840011207
0.14189851568198641
0.4592086406053535
0.22208445974042187
0.06514642836076523
-0.09867653988632843
0.3885033310417352
-0.030062893580884695
-0.417562944076691
-0.15098378255684408
0.032856428117196815
0.2746424000969691
-0.10453663662059408
-0.10798910349188402
-0.10483274171145117
-0.11256089800549093
-0.10503211802184
-0.11285596463744314
-0.08224279820715093
-0.07283302779194112
0.8282292782095969
0.697915927070082
-0.20073802278784753
-0.09803515916015179
-0.1424926141952031
-0.2099190809223481
-0.11474728302827963
0.3229366561560162
0.4004883966708142
0.5455739218169433
0.5182064861549662
-0.30083716597333326
0.37598326411755423
0.46730041589208315
-0.10173112362991314
-0.1015177007809229
-0.10023488347926922
-0.09774259216734417
-0.10057860928931182
-0.09716896039397006
-0.08609915881051101
-0.09337884142344534
-0.09009124785914119
-0.07742791007179078
-0.07420119458065871
-0.056243628531068006
-0.02419922996880728
-0.05637584605626296
0.02309466754382863
0.08701239591047082
0.26876720828554806
0.17058285412366786
-0.6002350262167117
-0.5404366841252364
2.332477803866083
1.995212947387695
-0.01426866209835127
-0.23529751624367262
-0.12197115715396736
0.16890447707040218
-1.006449621464377
0.26580845225486843
0.18019026749417988
0.03912787116118898
0.10142040678118876
0.34739579400085024
-0.008594334474243216
0.3933085360426465
0.21972929819691858
0.36635641015410586
0.5347439664371673
0.7167098552016166
0.42312650827671255
0.4970569594826565
0.32213632657705604
0.21879507095212594
0.1275784443340942
0.053919214037873184
-0.0015410902815654233
-0.04140971146197578
-0.06547403475449795
-0.04108717333662629
-0.08046344199414786
-0.06747152200792524
-0.08417220387194063
-0.08995613463131899
-0.09388416825066175
-0.09904161315161503
-0.09568838518601216
-0.09907145178296291
-0.10124284195391371
-0.1016899984057648
-0.1009306297753595
0.01392309274577603
0.1397667787401291
0.30801666327312544
-0.2698682475815286
0.09692172718230756
0.6181294559465219
0.5377434974217028
2.8036205624260058
1.9882932902006971
0.3871973547585708
0.4280089715891877
0.4775342740276183
0.004844021193724113
0.30698899839315996
-0.02456718494222923
-0.2824756368840481
0.5891841341826953
0.512418602266303
0.07574296445837428
-0.1031064733091662
-0.10460721684873531
-0.10073418279019995
-0.1037166028716656
-0.09297319922332471
-0.0897928423644155
-0.07158327137329537
-0.0415399873634844
0.3094595173219961
0.03402542789718172
1.264999176170303
1.4602219502353873
0.2656330619576349
0.0902502528112023
0.1804342236231055
0.41486364247951774
-0.10528507647994327
-0.10426241431584209
-0.11005936174742564
-0.10441858341236525
-0.11182313632223373
-0.09785007502965452
-0.09878110036853868
-0.027995922469231126
0.14417040243340135
5.320992766907538
5.209100265420398
-0.012080168567164455
2.0939890680446336
0.4859309551648382
-0.1025209641302976
-0.10298603194994907
-0.10122043134853537
0.4011067116890214
-0.09971285663321774
-0.1025627621117358
-0.100861771390753
-0.0957690567877429
-0.09115886452692858
-0.09472494883057324
-0.08655778107050327
-0.07941906597119462
-0.06715221295959076
-0.06512865281575336
-0.042084167177516923
0.011201477006264707
0.4872569337865387
0.06055635786783532
0.16286009384781766
0.24346968669941643
-0.06944189436095548
0.2227117060195817
0.06932976900816379
0.1491924947349901