# vtk DataFile Version 1.0
2D Simulation C++
ASCII
DATASET UNSTRUCTURED_GRID
FIELD FieldData 1
NODES 1 2 int
348 601

POINTS 348 double
0.0 0.5 0.0
0.0 1.0 0.0
2.0 1.0 0.0
2.0 0.5 0.0
0.0 0.528801679611206 0.0
0.0 0.564507782459259 0.0
0.0 0.6110168099403381 0.0
0.0 0.6721802353858948 0.0
0.0 0.7528436183929443 0.0
0.0 0.8593378663063049 0.0
0.16666941344738007 1.0 0.0
0.3333356976509094 1.0 0.0
0.5000020265579224 1.0 0.0
0.6666678786277771 1.0 0.0
0.8333337306976318 1.0 0.0
1.0 1.0 0.0
1.1666662693023682 1.0 0.0
1.3333321809768677 1.0 0.0
1.4999979734420776 1.0 0.0
1.6666642427444458 1.0 0.0
1.8333306312561035 1.0 0.0
2.0 0.8593378663063049 0.0
2.0 0.7528436183929443 0.0
2.0 0.6721802353858948 0.0
2.0 0.6110168099403381 0.0
2.0 0.564507782459259 0.0
2.0 0.528801679611206 0.0
0.029850948601961136 0.5 0.0
0.05970168858766556 0.5 0.0
0.08955242484807968 0.5 0.0
0.1194031685590744 0.5 0.0
0.14925390481948853 0.5 0.0
0.17910465598106384 0.5 0.0
0.20895539224147797 0.5 0.0
0.2388061285018921 0.5 0.0
0.2686568796634674 0.5 0.0
0.29850760102272034 0.5 0.0
0.32835835218429565 0.5 0.0
0.35820910334587097 0.5 0.0
0.3880598247051239 0.5 0.0
0.4179105758666992 0.5 0.0
0.44776129722595215 0.5 0.0
0.47761204838752747 0.5 0.0
0.5074627995491028 0.5 0.0
0.5373135209083557 0.5 0.0
0.5671642422676086 0.5 0.0
0.5970150232315063 0.5 0.0
0.6268657445907593 0.5 0.0
0.6567164659500122 0.5 0.0
0.6865672469139099 0.5 0.0
0.7164179682731628 0.5 0.0
0.7462686896324158 0.5 0.0
0.7761194705963135 0.5 0.0
0.8059701919555664 0.5 0.0
0.8358209133148193 0.5 0.0
0.865671694278717 0.5 0.0
0.89552241563797 0.5 0.0
0.9253731369972229 0.5 0.0
0.9552239179611206 0.5 0.0
0.9850746393203735 0.5 0.0
1.0149253606796265 0.5 0.0
1.0447760820388794 0.5 0.0
1.0746268033981323 0.5 0.0
1.1044776439666748 0.5 0.0
1.1343283653259277 0.5 0.0
1.1641790866851807 0.5 0.0
1.1940298080444336 0.5 0.0
1.2238805294036865 0.5 0.0
1.2537312507629395 0.5 0.0
1.2835819721221924 0.5 0.0
1.3134328126907349 0.5 0.0
1.3432835340499878 0.5 0.0
1.3731342554092407 0.5 0.0
1.4029849767684937 0.5 0.0
1.4328356981277466 0.5 0.0
1.4626864194869995 0.5 0.0
1.492537260055542 0.5 0.0
1.522387981414795 0.5 0.0
1.5522387027740479 0.5 0.0
1.5820894241333008 0.5 0.0
1.6119401454925537 0.5 0.0
1.6417908668518066 0.5 0.0
1.6716417074203491 0.5 0.0
1.701492428779602 0.5 0.0
1.731343150138855 0.5 0.0
1.761193871498108 0.5 0.0
1.7910445928573608 0.5 0.0
1.8208953142166138 0.5 0.0
1.8507460355758667 0.5 0.0
1.8805968761444092 0.5 0.0
1.910447597503662 0.5 0.0
1.940298318862915 0.5 0.0
1.970149040222168 0.5 0.0
1.7358819246292114 0.7499510645866394 0.0
0.2656642198562622 0.7486277222633362 0.0
0.49981194734573364 0.737183690071106 0.0
0.74151611328125 0.7359843254089355 0.0
0.9774143695831299 0.7371892929077148 0.0
1.201690912246704 0.7367381453514099 0.0
1.447761058807373 0.7383390665054321 0.0
1.8591958284378052 0.6421071290969849 0.0
0.14080412685871124 0.6421071290969849 0.0
1.588537573814392 0.6783608794212341 0.0
0.2553686201572418 0.6221352219581604 0.0
1.7466964721679688 0.6278358101844788 0.0
0.38199201226234436 0.6273008584976196 0.0
0.5013589859008789 0.6272794008255005 0.0
0.6207823157310486 0.6272526383399963 0.0
0.7401852607727051 0.627252459526062 0.0
0.8595882654190063 0.6272523999214172 0.0
0.9701492786407471 0.6212864518165588 0.0
1.0807102918624878 0.6272523999214172 0.0
1.2001131772994995 0.6272523999214172 0.0
1.3195161819458008 0.6272523999214172 0.0
1.4488563537597656 0.6310953497886658 0.0
1.9247323274612427 0.5706554055213928 0.0
0.07526770234107971 0.5706554055213928 0.0
1.5377081632614136 0.5910930037498474 0.0
1.6566967964172363 0.5934624075889587 0.0
1.8074009418487549 0.5708622932434082 0.0
0.1940300166606903 0.5737577676773071 0.0
1.0286364555358887 0.5665481686592102 0.0
1.14803946018219 0.5665481686592102 0.0
0.9116620421409607 0.5665481686592102 0.0
1.2674424648284912 0.5665481686592102 0.0
0.7922590970993042 0.5665481686592102 0.0
0.6728560328483582 0.5665482878684998 0.0
0.5534531474113464 0.5665481686592102 0.0
1.3892061710357666 0.5727682709693909 0.0
0.43402159214019775 0.5665869116783142 0.0
0.3146642744541168 0.5667200088500977 0.0
1.8656742572784424 0.5607567429542542 0.0
0.1343258023262024 0.5607567429542542 0.0
1.5970147848129272 0.5642029047012329 0.0
1.8783670663833618 0.7786769866943359 0.0
0.12163297086954117 0.7786769866943359 0.0
1.7164177894592285 0.562579333782196 0.0
1.4776118993759155 0.5620538592338562 0.0
1.5857784748077393 0.867691159248352 0.0
0.25373148918151855 0.5588531494140625 0.0
0.9701492786407471 0.5582930445671082 0.0
1.0895521640777588 0.5582930445671082 0.0
0.8507462739944458 0.5582930445671082 0.0
1.20895516872406 0.5582930445671082 0.0
0.7313433289527893 0.5582930445671082 0.0
1.3283581733703613 0.5582930445671082 0.0
0.6119403839111328 0.5582930445671082 0.0
0.49253740906715393 0.5582930445671082 0.0
0.37313446402549744 0.5582956075668335 0.0
0.36864349246025085 0.7376502752304077 0.0
0.602456271648407 0.7355343103408813 0.0
0.8441241383552551 0.7366551756858826 0.0
1.3355978727340698 0.7366551160812378 0.0
1.0895521640777588 0.7378703355789185 0.0
0.07051979005336761 0.6486480832099915 0.0
1.9294801950454712 0.6486480832099915 0.0
1.5086064338684082 0.6743985414505005 0.0
1.6785967350006104 0.6649783849716187 0.0
1.9543375968933105 0.5452249050140381 0.0
0.04566239193081856 0.5452249050140381 0.0
1.6567095518112183 0.5496091842651367 0.0
1.53738272190094 0.5491842031478882 0.0
0.91306072473526 0.8965699672698975 0.0
1.7782752513885498 0.5446287989616394 0.0
1.4163299798965454 0.5447981357574463 0.0
0.4287482798099518 0.8945969939231873 0.0
1.2610714435577393 0.8950135707855225 0.0
0.4313095211982727 0.6832783222198486 0.0
0.31561949849128723 0.6858259439468384 0.0
1.029850721359253 0.6781684160232544 0.0
0.9082015752792358 0.6848641633987427 0.0
1.1492537260055542 0.6781684160232544 0.0
0.7886138558387756 0.678956151008606 0.0
1.2709345817565918 0.684736430644989 0.0
0.6685023903846741 0.6868807673454285 0.0
1.4007169008255005 0.6702371835708618 0.0
0.5483440160751343 0.6792802214622498 0.0
0.19808045029640198 0.6887137293815613 0.0
1.797759771347046 0.6853783130645752 0.0
0.6811949610710144 0.8757594227790833 0.0
1.0189321041107178 0.8474968671798706 0.0
0.7922950983047485 0.8446238040924072 0.0
1.3765455484390259 0.8590760827064514 0.0
1.1571698188781738 0.8478953838348389 0.0
1.8954496383666992 0.5359624624252319 0.0
1.8360060453414917 0.5359931588172913 0.0
0.10455036163330078 0.5359624624252319 0.0
0.16417928040027618 0.5353734493255615 0.0
0.5530290007591248 0.8422092199325562 0.0
0.2832632064819336 0.5367912650108337 0.0
0.22469767928123474 0.5394234657287598 0.0
0.9405550956726074 0.5357381105422974 0.0
0.9997434020042419 0.5357381105422974 0.0
1.0600273609161377 0.5365630984306335 0.0
1.1191463470458984 0.5357381105422974 0.0
0.8802711367607117 0.5365630984306335 0.0
0.8211521506309509 0.5357381105422974 0.0
1.2385493516921997 0.5357381105422974 0.0
1.179430365562439 0.5365630984306335 0.0
0.7608681321144104 0.5365630984306335 0.0
0.7017492055892944 0.5357381105422974 0.0
1.2988333702087402 0.5365630984306335 0.0
1.357560396194458 0.5390686392784119 0.0
0.5823462605476379 0.5357381105422974 0.0
0.6414651870727539 0.5365630984306335 0.0
0.5220622420310974 0.5365630984306335 0.0
0.4629422128200531 0.535739541053772 0.0
0.3435409665107727 0.5357455015182495 0.0
0.4026572108268738 0.5365669131278992 0.0
0.21006634831428528 0.8590372204780579 0.0
1.7943172454833984 0.8627070188522339 0.0
0.06134982034564018 0.7191494703292847 0.0
1.938650131225586 0.7191494703292847 0.0
1.634666085243225 0.7584379315376282 0.0
0.3355695903301239 0.8387951850891113 0.0
1.537941336631775 0.7633647918701172 0.0
1.9670078754425049 0.574067234992981 0.0
0.032992132008075714 0.574067234992981 0.0
1.6862140893936157 0.5314788222312927 0.0
1.6272135972976685 0.5317342281341553 0.0
1.5077245235443115 0.5309156775474548 0.0
1.5668202638626099 0.5316618084907532 0.0
1.7466963529586792 0.5298213958740234 0.0
1.4473658800125122 0.5297333002090454 0.0
1.804386019706726 0.5275400876998901 0.0
1.9283779859542847 0.5282225012779236 0.0
1.8656879663467407 0.5267112255096436 0.0
0.13432854413986206 0.5271331071853638 0.0
0.07162196189165115 0.5282225012779236 0.0
0.25373148918151855 0.527070939540863 0.0
0.19419340789318085 0.5297109484672546 0.0
0.31349387764930725 0.5272363424301147 0.0
0.37313446402549744 0.5270199179649353 0.0
0.4329495429992676 0.5274069309234619 0.0
0.49253740906715393 0.5270196795463562 0.0
0.5523557066917419 0.5274024605751038 0.0
1.3898069858551025 0.5277745127677917 0.0
1.3283581733703613 0.5270196795463562 0.0
0.6119403839111328 0.5270196795463562 0.0
1.2685397863388062 0.5274024605751038 0.0
0.6717586517333984 0.5274024605751038 0.0
0.7313433289527893 0.5270196795463562 0.0
1.20895516872406 0.5270196795463562 0.0
0.7911616563796997 0.5274024605751038 0.0
0.8507462739944458 0.5270196795463562 0.0
1.1491369009017944 0.5274024605751038 0.0
1.0895521640777588 0.5270196795463562 0.0
0.9105646014213562 0.5274024605751038 0.0
0.9701492786407471 0.5270196795463562 0.0
1.0297338962554932 0.5274024605751038 0.0
1.4776118993759155 0.5259945392608643 0.0
1.597015619277954 0.5255197882652283 0.0
1.7164177894592285 0.525999903678894 0.0
1.6834615468978882 0.8477573990821838 0.0
1.5822722911834717 0.6086509227752686 0.0
0.20459823310375214 0.6270732283592224 0.0
1.8037469387054443 0.6209055185317993 0.0
0.09990309923887253 0.8589919805526733 0.0
1.9000968933105469 0.8589919805526733 0.0
1.75603187084198 0.5789161324501038 0.0
0.10896337777376175 0.5982794761657715 0.0
1.8910366296768188 0.5982794761657715 0.0
1.4950518608093262 0.605266273021698 0.0
1.7049394845962524 0.6007562279701233 0.0
1.4387125968933105 0.5775743722915649 0.0
1.489302158355713 0.851039469242096 0.0
0.15732239186763763 0.5961292386054993 0.0
1.8436260223388672 0.5944437384605408 0.0
0.4399496018886566 0.6259797215461731 0.0
1.022565245628357 0.6257523894309998 0.0
[...]
POINT_DATA 348
SCALARS Psi double
LOOKUP_TABLE default
1.0878984745059153
1.0
1.0
1.0766684692566482
1.0877880062308714
1.087545110472692
1.0891468084440827
1.093872805577498
1.1033510760285985
1.1418217491790534
1.0
1.0
1.0
1.0
1.0
1.0
1.0
1.0
1.0
1.0
1.0
1.1342685463948652
1.0942751242409685
1.084475035483186
1.0798819113724116
1.0777145537983501
1.0768590541920322
1.087981289090203
1.086711873720363
1.084822304727298
1.082420799961275
1.0794798105856365
1.076023747953617
1.0721218737328337
1.067867293876566
1.0633834607860393
1.0587584764216094
1.0540920620728211
1.0494630468909585
1.0449565223378656
1.0406243933955694
1.0364944248356298
1.0325996192880993
1.028967284469065
1.025610940001584
1.0225183845118588
1.0196944968263335
1.0171381906735493
1.0148448620382235
1.0127905844152005
1.0109687791865354
1.0093691715629487
1.0079826246132815
1.006788756264378
1.0057803759758464
1.0049494028549026
1.0042890027962543
1.0037866646418248
1.003438299319093
1.0032411995660115
1.003193444264015
1.0032914481784434
1.0035346311375426
1.0039285742433848
1.0044762170590233
1.005180781898285
1.0060462357462152
1.0070859529070348
1.0083062724644334
1.009714470003177
1.0113162605269406
1.0131345528458429
1.0151740580343789
1.017430970049372
1.0199346785756231
1.0226764930901588
1.0256555034855634
1.0288722148436265
1.032324068251586
1.0359903891850268
1.039839537792793
1.0438338440270833
1.0479255363452458
1.0520543032562357
1.0561439082956032
1.0601072579918056
1.0638381740188012
1.0672402127748264
1.070204758710065
1.072629192736782
1.074475647686306
1.0757491274576936
1.0764613444357851
1.046786711109751
1.0518854974995298
1.0201199545674708
1.0058086488405324
1.0016730890732388
1.0036439487144728
1.013915967140934
1.0733682570847263
1.0821127466395317
1.031107448464222
1.0635343109924522
1.0566896057905495
1.042553003594733
1.0268241535057616
1.015624362388426
1.00844977880263
1.004363358749376
1.002845786771695
1.003042130340372
1.0054010944040135
1.0102988518924576
1.0190457071421544
1.076281597020843
1.0856765450456372
1.0292513434324975
1.0445295116975073
1.065908391886441
1.074034191606714
1.0030690600137129
1.004581156625496
1.003818930540997
1.0086117114269304
1.0070315646224877
1.0132384594371717
1.0232041804417014
1.0157540903958602
1.0374860201990512
1.0554784179709258
1.0719808302860148
1.0811616401264974
1.0372069616075157
1.0782438794756362
1.0863580194891433
1.053672817276502
1.0235734735172746
1.0130768691662637
1.0652546100949478
1.0031970524730285
1.0035798881935794
1.0051657431279244
1.006342712997301
1.0098477968555608
1.011873277050558
1.0179114426599747
1.0300947466121302
1.0464794892479912
1.0356947694515592
1.0123546184430563
1.0031387426964327
1.0079927420496346
1.0019375177825562
1.0902638557374258
1.0807843178728176
1.0226367967517562
1.0445797931518415
1.0766486529924761
1.0869297742305102
1.0454993564028257
1.030180404416092
1.0004324779457163
1.0622233994946049
1.0182593122279693
1.0105238643737673
1.0014801910947357
1.0321300518410117
1.049402649176795
1.0022866924228824
1.0028325832447635
1.0035487593324124
1.005618481713391
1.0068375194662411
1.0105844966847513
1.0140169693415957
1.0195846246205873
1.0716959174673093
1.0635402041394382
1.0033690888747606
1.000551528926605
1.0019091530081219
1.0044737988317927
1.001177079481898
1.0738826786535023
1.068932668685398
1.0837058532098631
1.0778577788647887
1.0080518454116612
1.0609556648015994
1.0698224662033156
1.0035449095528934
1.0031568981133978
1.0033514355710877
1.0041283491622026
1.004548002359502
1.0061844091927872
1.0075849559331589
1.005537017787926
1.0085721333131012
1.0117220718823923
1.0104033157148946
1.0139270178228055
1.0208731770420378
1.0158334216377354
1.0270743050415734
1.0342521732263248
1.0515054291938855
1.042562082357404
1.0395567065611526
1.036211233941123
1.0980435920039107
1.0884747659977352
1.0302226293673111
1.0266177484462187
1.019376448788737
1.077798180624445
1.086996083617923
1.0498144934644813
1.0417081050560923
1.027115335910253
1.0339262736258221
1.0581499446394185
1.0211277923837063
1.0654241818171128
1.075478572049126
1.0715896555247937
1.0810291667557017
1.085907613618225
1.0655604214028818
1.0740717861640998
1.0562842958538803
1.0470323712778868
1.038362659914792
1.0306044752124648
1.0238980839152712
1.016320485811635
1.0121235364305965
1.018279258700562
1.0089275203721924
1.0137006778721984
1.0100775781267968
1.006500390288776
1.0073102832350815
1.005304971057291
1.004773307365678
1.0036843055083207
1.003987408849456
1.003294880301159
1.0031996899315363
1.02403735758291
1.0377827111537836
1.0540276655971759
1.0247321279254602
1.0340237284795082
1.0720977954053765
1.065417477667319
1.0766798885028075
1.0694555700113682
1.0590427058657041
1.0841870038584427
1.075105597125952
1.0242340643880685
1.0512398238739784
1.0196470454202402
1.0091319940554695
1.079060529425818
1.07040324015737
1.0344440063443003
1.0027017717233022
1.003311606665375
1.0039833364085886
1.0061442472404232
1.0075903524984693
1.0117379897082541
1.0131967721968738
1.0208948219763494
1.0530712580073518
1.026904450074412
1.0769456125866228
1.0853521982253391
1.0490327200726177
1.03297808281143
1.0415769128202081
1.0531510677116274
1.0023830257252888
1.0026693188057392
1.0039418911336593
1.0050219755394576
1.0079147626328206
1.0097441058479344
1.0144741786151545
1.0255108295520277
1.0411378679621561
1.1079720339972974
1.0992860060360796
1.0766662395483526
1.0879553704915887
1.0607630654084113
1.0029734870243185
1.0032515757369007
1.0031706622359517
1.0612209313493606
1.0037527086784763
1.0043770222429202
1.0056003462581304
1.0053642798870548
1.0069008653555065
1.008344669318424
1.0107080771129715
1.010158338085713
1.012799059173127
1.0154620518406579
1.0192794234283178
1.0265465388355492
1.0680748969585945
1.0320716499156968
1.0420100803880348
1.048885479019189
1.0174362726640154
1.0457873258268398
1.0304818268431943
1.038647165776147
1.0014570165754462
1.0217583110289177
1.0389659103822144
1.0837777927920271
1.0744046642619047
1.0002569121773377
1.028206227624299
1.0692428658326467
1.0781093475385553
1.003940195685375
1.0875215093190729
1.0771331067684902
1.0872136409914446
1.0783251134840668
1.069063875364847
1.0624278431759835
1.0620060165734573
1.0185975169905575
1.001053800772143
1.016345308195837
1.006591681752718
1.0761908357874193
1.0872104888628642
1.0528187222834888
1.0469710938931724

SCALARS Omega double
LOOKUP_TABLE default
4.100276591395054
-10.327730795435983
-14.268649563398004
0.13217857057176807
4.492515426468666
-2.683794553308307
-4.473557660634818
3.5422922230912985
1.0314781535195485
20.842645460337224
-8.188675201154043
-0.409472522325207
-0.898527565394095
-0.2342139594278903
-0.11369097867175659
-0.030612111190601855
-0.11116900932454
-0.1864350413122043
-0.6569892800268166
-0.611033925692501
-6.1157453850510395
17.94367058510938
3.5124636782392367
-1.037908127011842
0.14534828365024566
0.0335122576957017
-0.3220314024808445
2.1113617298252865
1.091836779170041
0.7143021740894503
0.5849518485729396
0.5327239424929024
0.5070780229780608
0.4781901953453206
0.44153688695109267
0.39741178056711884
0.34773268551747016
0.2962463956646027
0.24497892024286164
0.19618313349210129
0.15080900292476157
0.1095204822568797
0.0726134735065983
0.040333453579354805
0.012569702993340032
-0.011155351329307294
-0.031081819755056136
-0.04752459062679354
-0.06081139786186834
-0.07154132509387666
-0.08001355261604663
-0.086583107120479
-0.09151389784958691
-0.09520530149819757
-0.09785149337440824
-0.09967300325155894
-0.10081314043647197
-0.10146383312919426
-0.10170958672075692
-0.1016268687739394
-0.10124796093613905
-0.10059290948820007
-0.09964829274314226
-0.09834303166543339
-0.09661228012407547
-0.09434272394929691
-0.09142625853707924
-0.08763222668395766
-0.08279843107379517
-0.07668844523048603
-0.06909527064170304
-0.05954731729075635
-0.04780290324971042
-0.03366497388522745
-0.01647275171199339
0.003910499114230246
0.027743081704902355
0.05530912053761007
0.08677693338060787
0.12203690492216313
0.1605761313609404
0.20168960504356476
0.24401350578089312
0.28593508886979757
0.3247869460040055
0.35760137009321086
0.3795471549340879
0.3852480049244044
0.3706556219672183
0.33000239086052024
0.26103410293989876
0.16510919313850594
0.06635078647436518
0.3151066787096984
0.3393627792575141
-0.11646412749209117
-0.130911856674341
-0.10570544244118789
-0.11366535237411372
-0.12385496956468557
0.7178328075969713
0.8448250621504038
0.04691930011489818
0.4698816282080036
0.40812474717937247
0.16694960755836455
0.002897547175582535
-0.07395212630485506
-0.10007944145215696
-0.10519634428492942
-0.10385548595522075
-0.10230780758053555
-0.09843631749274472
-0.08460653283877664
-0.04068562454045259
0.3065098106910105
0.09488991775543763
0.051862508429869246
0.2173010543422472
0.4399174100870095
0.5280590909252653
-0.10168073739763692
-0.09715105264406816
-0.10234065547058757
-0.0837276210248061
-0.09659159909553759
-0.07320444395655692
-0.011171932718648903
-0.048931336381428166
0.11627850663352658
0.3207472807166529
0.40938443047305445
0.4908519705419921
0.13352109534951978
2.2490601200615594
2.527400928682782
0.3156010861577198
0.007244176733443629
-0.318783135445028
0.4342894838820316
-0.10231092622066738
-0.0998169280636611
-0.10036161191548111
-0.09157790155444086
-0.08711259275166502
-0.06873062135314198
-0.0465545728566606
0.04633405892959551
0.21351020278414382
0.04064205045432422
-0.14344316639383478
-0.11680355787937143
-0.12342029435509093
-0.10619346693409012
0.9676272328608462
0.574782840196621
-0.03102886952367394
0.2379945714030122
0.14049951445132808
0.45038740922733
0.22190937382070927
0.06523625353635601
-0.0985790664452325
0.38752322420557567
-0.030069434434193618
-0.4188839881075216
-0.15081365778161349
0.032554703943051
0.27537492140950437
-0.10461616328946671
-0.10807518480256496
-0.10488149130446492
-0.11268902260587468
-0.10497213967837277
-0.11310599821837095
-0.08190653120120335
-0.07324263405391152
0.8361155033639978
0.6923071888276321
-0.20088340153465128
-0.09796264605014794
-0.1424951330115394
-0.20891313998500435
-0.11464430760716564
0.32160350023338563
0.3990826750053568
0.5432661528298263
0.5181516061357988
-0.3016400703849838
0.37625886709560136
0.4676878473958299
-0.10188407620092588
-0.10167070349642982
-0.10038421079513996
-0.09788440007449248
-0.10072930314573164
-0.09731626898232187
-0.08620622829695357
-0.09350530320911742
-0.09023276549109818
-0.07756313163682037
-0.07426981170337918
-0.056273975081592646
-0.024308275533201685
-0.056498592003101186
0.02302009819095928
0.08697762293840396
0.26890621586210395
0.17062922353093646
-0.6191909294918444
-0.5147470841170236
2.3294452251187243
1.9777754326561998
-0.011509735355418499
-0.23816940700238473
-0.12062838988458037
0.16690677657345643
-1.0217322041325285
0.2655262803329424
0.18017280045778927
0.03920614717673207
0.10148348527316324
0.34662514697217883
-0.00856666896965544
0.392091632569648
0.2186064418607559
0.36523518411925476
0.5338230402321769
0.7124939981817939
0.42341547286755493
0.4972714401489596
0.32227161888167616
0.21880357136856804
0.12752218731514955
0.05381235952138584
-0.001660651916991972
-0.041427650445403925
-0.06554031119294872
-0.04122242055222622
-0.08056138243490338
-0.06760899316147612
-0.08431587013549133
-0.09007820841076315
-0.09403104486020746
-0.09919241075130818
-0.0958260682425186
-0.09921886260637115
-0.10139610467683226
-0.10184407580531156
-0.10108332295848149
0.013962250850064375
0.13979943912251352
0.3076025263571592
-0.2638912731574999
0.09725913339116944
0.6218180596334913
0.5337798651870758
2.9039953778016074
2.1556482072657626
0.38564602074546545
0.431595959535572
0.47340738223763384
0.00516175800449169
0.30623706254323774
-0.02441038489734164
-0.2810106959151287
0.5921227818731689
0.5085895250222204
0.07552629316169177
-0.10322296887698258
-0.10472893921745968
-0.10082993819156748
-0.1038571831610938
-0.09299651549724974
-0.08998797085780172
-0.07147385155938252
-0.04182883895720764
0.31016150189180036
0.034135990374569
1.2523254612617618
1.4785748227904303
0.2651621003447537
0.09036934035621134
0.180330954705926
0.4136173790001782
-0.10537196689865054
-0.10433475528570609
-0.11016426596203764
-0.10444550632384703
-0.1120011600155297
-0.09772746947763945
-0.09915262606958612
-0.028490043251590737
0.14423106337715588
5.598342302591901
5.403331021629024
-0.012855761299890201
2.0975690307102135
0.48885287031239616
-0.10265928973052965
-0.10312383634441545
-0.10135194605760907
0.401996899681059
-0.09983805538442557
-0.1027029764732975
-0.10100566888357727
-0.09587048404913975
-0.09124247914445802
-0.09487819303093337
-0.08672286982767774
-0.07944071603548157
-0.06713690872728197
-0.06531830849016497
-0.042286178500673045
0.010999425357138017
0.4886783081710993
0.060394918391997274
0.16287202191339153
0.24370900185577318
-0.0690211703720908
0.22262509022688157
0.0693833280336702
0.1491412761469022
-0.10985028243041788
-0.1682993784669085
0.15224910600448205
0.3821709177776802
0.37518986524017195
-0.08900149604167613
0.0324108817773189
0.4400053669957796
0.5321896093695667
-0.13409298090495997
0.4668976837176502
0.011219789280894442
-0.5101373601022252
0.3408516063694451
1.0203185730900997
0.927159851839054
0.3733238666503141
-0.02622250183052385
-0.1725691100222187
-0.052967204205187364
-0.16617295466229967
0.11856080318476059
1.248211826241917
0.5729328676154053
-1.216772112487621

SCALARS Vx_analytic double
LOOKUP_TABLE default
4.100276591395054
-10.327730795435983
-14.268649563398004
0.13210637964735708
4.492515426468666
-2.683794553308307
-4.473557660634818
3.5422922230912985
1.0314781535195485
20.842645460337224
-8.188675201154043
-0.409472522325207
-0.898527565394095
-0.2342139594278903
-0.11369097867175659
-0.030612111190601855
-0.11116900932454
-0.1864350413122043
-0.6569892800268163
-0.611033925692501
-6.1157453850510395
17.94367058510938
3.513264695897529
-1.015770522164338
0.14755553987788622
0.03451969899715425
-0.320076199091142
2.1113617298252865
1.091836779170041
0.7143021740894503
0.5849518485729396
0.5327239424929024
0.5070780229780608
0.4781901953453206
0.44153688695109267
0.39741178056711884
0.34773268551747016
0.2962463956646027
0.24497892024286164
0.19618313349210129
0.15080900292476157
0.1095204822568797
0.0726134735065983
0.040333453579354805
0.012569702993340032
-0.011155351329307294
-0.031081819755056136
-0.04752459062679354
-0.06081139786186834
-0.07154132509387666
-0.08001355261604663
-0.086583107120479
-0.09151389784958691
-0.09520530149819757
-0.09785149337440824
-0.09967300325155894
-0.10081314043647197
-0.10146383312919426
-0.10170958672075692
-0.1016268687739394
-0.10124782765011194
-0.10059294204151514
-0.09964845504895714
-0.09834350190068704
-0.09661312131839436
-0.0943445187182195
-0.09142861870421434
-0.08763597043733502
-0.08280334278857174
-0.07669661379605999
-0.06910496134795602
-0.05956144851363255
-0.04782298753980108
-0.03367246039618374
-0.016485391452164665
0.0038884095099724395
0.02772151838488749
0.055297474114583474
0.0867682798999622
0.12202034388208244
0.16057453055749626
0.20170954643112468
0.24406643450339208
0.28600158380072266
0.32489654469082524
0.35771286937455365
0.3797278569292432
0.3856007159068363
0.371028316067098
0.33040741310234084
0.26136830543632955
0.165351850605783
0.06630766750220776
0.307289028217918
0.3371706145208824
-0.1157371465601038
-0.13079943948004238
-0.10570535512381744
-0.11372780229942281
-0.12456353024137874
0.7269997387825649
0.8347617254270395
0.046007270506564744
0.4679910115474714
0.4105073469606241
0.16692146289108062
0.0031366688240641017
-0.07378379845247324
-0.10001567391874183
-0.10518127231466562
-0.10385296486788102
-0.1023105280304545
-0.0984683216412196
-0.08473012843967821
-0.0410167179237046
0.30863173663670873
0.10164156815091846
0.05153787112997738
0.21754434337184805
0.4422804079350434
0.527041471254356
-0.10168036655194104
-0.09715932322623502
-0.10233728464370483
-0.08377000668637316
-0.09657556248259874
-0.07315791419989359
-0.011102327662892826
-0.04907507932920507
0.11625277765620105
0.3202582298912796
0.4115959586539646
0.4921555331207343
0.1334067718159156
2.256243746621493
2.4658842148376374
0.31620104478259686
0.0070459417523074325
-0.31995283261112034
0.4335301034134909
-0.10230954769928419
-0.09981884026432691
-0.10035371804686706
-0.09159326976870365
-0.08708221543323375
-0.0687861153450376
-0.04648330343828729
0.04641118694716111
0.2133888545923099
0.04151052174496465
-0.1429973079277806
-0.11677288635854065
-0.12376119510982765
-0.10620445994400479
0.8926160215204118
0.5831067609988635
-0.03178275469455263
0.23793720672140783
0.14188665745960177
0.4592261061063542
0.2220384809808936
0.06507796699741424
-0.09857956794885346
0.3884750777202823
-0.03015694243821483
-0.4175139088451465
-0.15089691667432648
0.03283307489497957
0.2746372744133586
-0.10461649295392068
-0.10806434632226963
-0.104906101931367
-0.11263371909553797
-0.10508948353635576
-0.11291175052270644
-0.08229300621649306
-0.0728763247850596
0.8282370826628597
0.6979119990900365
-0.20066822435982087
-0.09797116703106303
-0.14243482955327766
-0.20985491953486066
-0.11468425977854367
0.3229199860491826
0.4004661603599178
0.5455847679289668
0.5182087427676713
-0.30079309657117964
0.37596233365097026
0.46729198944466205
-0.10188333045295486
-0.1016702073105982
-0.10038502890754471
-0.09788823854635641
-0.10072764797331012
-0.09731253721549663
-0.08622901541222679
-0.09351735548217942
-0.09022641066259522
-0.07755275575103018
-0.07432039420374316
-0.05635099744383915
-0.024297351234838168
-0.05648791947671956
0.023012124120838397
0.08694559797846338
0.26873183033788406
0.17053225418648157
-0.6002055555257315
-0.5404004018210277
2.3324891610304683
1.9952133237032947
-0.014257358255276794
-0.2352658413396795
-0.1219607855521732
0.16889580909626198
-1.0064285288166845
0.26576571577982344
0.18013718698302986
0.03905086594881235
0.10135564260078918
0.3473621975745456
-0.008684319443992745
0.3932823963532718
0.21971500681175926
0.3663367858564163
0.5347506766807821
0.7167242441773334
0.42311179378164965
0.49705399018413
0.32210796456548907
0.2187517832971003
0.1275192138173109
0.05384393201645633
-0.0016322894204037672
-0.041511911550405865
-0.06558852477086947
-0.041193178599651006
-0.08058918605298553
-0.06759113277200222
-0.08430334731483854
-0.09009150162882694
-0.09402489191032308
-0.09918920923212075
-0.09583184572126031
-0.09922064608243625
-0.10139490965466613
-0.10184361020471304
-0.10108341549761617
0.013839356920253067
0.13970756573254828
0.307978483051962
-0.26982869697747663
0.09687450540473225
0.6181302600909068
0.5377275131524994
2.8036412452532478
1.9883210013782928
0.38716987918869056
0.4280201239663493
0.4775215942838721
0.004780602870291372
0.3069585322808398
-0.024649601427184302
-0.2824246628746646
0.5891893005314284
0.512402115199153
0.07569952319087997
-0.10322246035600892
-0.10472312727532172
-0.10084273200977721
-0.10382419512349138
-0.09306743180264279
-0.08988417115446254
-0.07166214313202582
-0.04160908275362631
0.30944238264528673
0.033955124038687085
1.2650001535191067
1.4602339633011125
0.26559395215656184
0.09019050064846683
0.18038623593968958
0.4148559104648575
-0.10536896235423336
-0.10433930005228441
-0.11013665881826437
-0.10448760294809742
-0.11189194719566171
-0.09790551172969475
-0.09883423321613215
-0.028031205036157296
0.1441547257622125
5.320999423523882
5.2091136206936595
-0.012093327463828185
2.094004461101477
0.4859303617038207
-0.10265782145692225
-0.10312143453223514
-0.10135356153998412
0.4010911438353037
-0.09984342184062268
-0.10269515363919471
-0.10099102635343622
-0.0958910425467363
-0.0912752761059463
-0.0948444375794262
-0.08667060521059547
-0.07952305266746715
-0.06724861035035161
-0.06522696170407584
-0.04217311602203391
0.011130154359858395
0.4872496262961584
0.060495842167925334
0.16281780513840927
0.24343739592002142
-0.06948058667612754
0.22266343541765765
0.06925833770239927