# vtk DataFile Version 1.0
2D Simulation C++
ASCII
DATASET UNSTRUCTURED_GRID
FIELD FieldData 1
NODES 1 2 int
348 601

POINTS 348 double
0.0 0.5 0.0
0.0 1.0 0.0
2.0 1.0 0.0
2.0 0.5 0.0
0.0 0.528801679611206 0.0
0.0 0.564507782459259 0.0
0.0 0.6110168099403381 0.0
0.0 0.6721802353858948 0.0
0.0 0.7528436183929443 0.0
0.0 0.8593378663063049 0.0
0.16666941344738007 1.0 0.0
0.3333356976509094 1.0 0.0
0.5000020265579224 1.0 0.0
0.6666678786277771 1.0 0.0
0.8333337306976318 1.0 0.0
1.0 1.0 0.0
1.1666662693023682 1.0 0.0
1.3333321809768677 1.0 0.0
1.4999979734420776 1.0 0.0
1.6666642427444458 1.0 0.0
1.8333306312561035 1.0 0.0
2.0 0.8593378663063049 0.0
2.0 0.7528436183929443 0.0
2.0 0.6721802353858948 0.0
2.0 0.6110168099403381 0.0
2.0 0.564507782459259 0.0
2.0 0.528801679611206 0.0
0.029850948601961136 0.5 0.0
0.05970168858766556 0.5 0.0
0.08955242484807968 0.5 0.0
0.1194031685590744 0.5 0.0
0.14925390481948853 0.5 0.0
0.17910465598106384 0.5 0.0
0.20895539224147797 0.5 0.0
0.2388061285018921 0.5 0.0
0.2686568796634674 0.5 0.0
0.29850760102272034 0.5 0.0
0.32835835218429565 0.5 0.0
0.35820910334587097 0.5 0.0
0.3880598247051239 0.5 0.0
0.4179105758666992 0.5 0.0
0.44776129722595215 0.5 0.0
0.47761204838752747 0.5 0.0
0.5074627995491028 0.5 0.0
0.5373135209083557 0.5 0.0
0.5671642422676086 0.5 0.0
0.5970150232315063 0.5 0.0
0.6268657445907593 0.5 0.0
0.6567164659500122 0.5 0.0
0.6865672469139099 0.5 0.0
0.7164179682731628 0.5 0.0
0.7462686896324158 0.5 0.0
0.7761194705963135 0.5 0.0
0.8059701919555664 0.5 0.0
0.8358209133148193 0.5 0.0
0.865671694278717 0.5 0.0
0.89552241563797 0.5 0.0
0.9253731369972229 0.5 0.0
0.9552239179611206 0.5 0.0
0.9850746393203735 0.5 0.0
1.0149253606796265 0.5 0.0
1.0447760820388794 0.5 0.0
1.0746268033981323 0.5 0.0
1.1044776439666748 0.5 0.0
1.1343283653259277 0.5 0.0
1.1641790866851807 0.5 0.0
1.1940298080444336 0.5 0.0
1.2238805294036865 0.5 0.0
1.2537312507629395 0.5 0.0
1.2835819721221924 0.5 0.0
1.3134328126907349 0.5 0.0
1.3432835340499878 0.5 0.0
1.3731342554092407 0.5 0.0
1.4029849767684937 0.5 0.0
1.4328356981277466 0.5 0.0
1.4626864194869995 0.5 0.0
1.492537260055542 0.5 0.0
1.522387981414795 0.5 0.0
1.5522387027740479 0.5 0.0
1.5820894241333008 0.5 0.0
1.6119401454925537 0.5 0.0
1.6417908668518066 0.5 0.0
1.6716417074203491 0.5 0.0
1.701492428779602 0.5 0.0
1.731343150138855 0.5 0.0
1.761193871498108 0.5 0.0
1.7910445928573608 0.5 0.0
1.8208953142166138 0.5 0.0
1.8507460355758667 0.5 0.0
1.8805968761444092 0.5 0.0
1.910447597503662 0.5 0.0
1.940298318862915 0.5 0.0
1.970149040222168 0.5 0.0
1.7358819246292114 0.7499510645866394 0.0
0.2656642198562622 0.7486277222633362 0.0
0.49981194734573364 0.737183690071106 0.0
0.74151611328125 0.7359843254089355 0.0
0.9774143695831299 0.7371892929077148 0.0
1.201690912246704 0.7367381453514099 0.0
1.447761058807373 0.7383390665054321 0.0
1.8591958284378052 0.6421071290969849 0.0
0.14080412685871124 0.6421071290969849 0.0
1.588537573814392 0.6783608794212341 0.0
0.2553686201572418 0.6221352219581604 0.0
1.7466964721679688 0.6278358101844788 0.0
0.38199201226234436 0.6273008584976196 0.0
0.5013589859008789 0.6272794008255005 0.0
0.6207823157310486 0.6272526383399963 0.0
0.7401852607727051 0.627252459526062 0.0
0.8595882654190063 0.6272523999214172 0.0
0.9701492786407471 0.6212864518165588 0.0
1.0807102918624878 0.6272523999214172 0.0
1.2001131772994995 0.6272523999214172 0.0
1.3195161819458008 0.6272523999214172 0.0
1.4488563537597656 0.6310953497886658 0.0
1.9247323274612427 0.5706554055213928 0.0
0.07526770234107971 0.5706554055213928 0.0
1.5377081632614136 0.5910930037498474 0.0
1.6566967964172363 0.5934624075889587 0.0
1.8074009418487549 0.5708622932434082 0.0
0.1940300166606903 0.5737577676773071 0.0
1.0286364555358887 0.5665481686592102 0.0
1.14803946018219 0.5665481686592102 0.0
0.9116620421409607 0.5665481686592102 0.0
1.2674424648284912 0.5665481686592102 0.0
0.7922590970993042 0.5665481686592102 0.0
0.6728560328483582 0.5665482878684998 0.0
0.5534531474113464 0.5665481686592102 0.0
1.3892061710357666 0.5727682709693909 0.0
0.43402159214019775 0.5665869116783142 0.0
0.3146642744541168 0.5667200088500977 0.0
1.8656742572784424 0.5607567429542542 0.0
0.1343258023262024 0.5607567429542542 0.0
1.5970147848129272 0.5642029047012329 0.0
1.8783670663833618 0.7786769866943359 0.0
0.12163297086954117 0.7786769866943359 0.0
1.7164177894592285 0.562579333782196 0.0
1.4776118993759155 0.5620538592338562 0.0
1.5857784748077393 0.867691159248352 0.0
0.25373148918151855 0.5588531494140625 0.0
0.9701492786407471 0.5582930445671082 0.0
1.0895521640777588 0.5582930445671082 0.0
0.8507462739944458 0.5582930445671082 0.0
1.20895516872406 0.5582930445671082 0.0
0.7313433289527893 0.5582930445671082 0.0
1.3283581733703613 0.5582930445671082 0.0
0.6119403839111328 0.5582930445671082 0.0
0.49253740906715393 0.5582930445671082 0.0
0.37313446402549744 0.5582956075668335 0.0
0.36864349246025085 0.7376502752304077 0.0
0.602456271648407 0.7355343103408813 0.0
0.8441241383552551 0.7366551756858826 0.0
1.3355978727340698 0.7366551160812378 0.0
1.0895521640777588 0.7378703355789185 0.0
0.07051979005336761 0.6486480832099915 0.0
1.9294801950454712 0.6486480832099915 0.0
1.5086064338684082 0.6743985414505005 0.0
1.6785967350006104 0.6649783849716187 0.0
1.9543375968933105 0.5452249050140381 0.0
0.04566239193081856 0.5452249050140381 0.0
1.6567095518112183 0.5496091842651367 0.0
1.53738272190094 0.5491842031478882 0.0
0.91306072473526 0.8965699672698975 0.0
1.7782752513885498 0.5446287989616394 0.0
1.4163299798965454 0.5447981357574463 0.0
0.4287482798099518 0.8945969939231873 0.0
1.2610714435577393 0.8950135707855225 0.0
0.4313095211982727 0.6832783222198486 0.0
0.31561949849128723 0.6858259439468384 0.0
1.029850721359253 0.6781684160232544 0.0
0.9082015752792358 0.6848641633987427 0.0
1.1492537260055542 0.6781684160232544 0.0
0.7886138558387756 0.678956151008606 0.0
1.2709345817565918 0.684736430644989 0.0
0.6685023903846741 0.6868807673454285 0.0
1.4007169008255005 0.6702371835708618 0.0
0.5483440160751343 0.6792802214622498 0.0
0.19808045029640198 0.6887137293815613 0.0
1.797759771347046 0.6853783130645752 0.0
0.6811949610710144 0.8757594227790833 0.0
1.0189321041107178 0.8474968671798706 0.0
0.7922950983047485 0.8446238040924072 0.0
1.3765455484390259 0.8590760827064514 0.0
1.1571698188781738 0.8478953838348389 0.0
1.8954496383666992 0.5359624624252319 0.0
1.8360060453414917 0.5359931588172913 0.0
0.10455036163330078 0.5359624624252319 0.0
0.16417928040027618 0.5353734493255615 0.0
0.5530290007591248 0.8422092199325562 0.0
0.2832632064819336 0.5367912650108337 0.0
0.22469767928123474 0.5394234657287598 0.0
0.9405550956726074 0.5357381105422974 0.0
0.9997434020042419 0.5357381105422974 0.0
1.0600273609161377 0.5365630984306335 0.0
1.1191463470458984 0.5357381105422974 0.0
0.8802711367607117 0.5365630984306335 0.0
0.8211521506309509 0.5357381105422974 0.0
1.2385493516921997 0.5357381105422974 0.0
1.179430365562439 0.5365630984306335 0.0
0.7608681321144104 0.5365630984306335 0.0
0.7017492055892944 0.5357381105422974 0.0
1.2988333702087402 0.5365630984306335 0.0
1.357560396194458 0.5390686392784119 0.0
0.5823462605476379 0.5357381105422974 0.0
0.6414651870727539 0.5365630984306335 0.0
0.5220622420310974 0.5365630984306335 0.0
0.4629422128200531 0.535739541053772 0.0
0.3435409665107727 0.5357455015182495 0.0
0.4026572108268738 0.5365669131278992 0.0
0.21006634831428528 0.8590372204780579 0.0
1.7943172454833984 0.8627070188522339 0.0
0.06134982034564018 0.7191494703292847 0.0
1.938650131225586 0.7191494703292847 0.0
1.634666085243225 0.7584379315376282 0.0
0.3355695903301239 0.8387951850891113 0.0
1.537941336631775 0.7633647918701172 0.0
1.9670078754425049 0.574067234992981 0.0
0.032992132008075714 0.574067234992981 0.0
1.6862140893936157 0.5314788222312927 0.0
1.6272135972976685 0.5317342281341553 0.0
1.5077245235443115 0.5309156775474548 0.0
1.5668202638626099 0.5316618084907532 0.0
1.7466963529586792 0.5298213958740234 0.0
1.4473658800125122 0.5297333002090454 0.0
1.804386019706726 0.5275400876998901 0.0
1.9283779859542847 0.5282225012779236 0.0
1.8656879663467407 0.5267112255096436 0.0
0.13432854413986206 0.5271331071853638 0.0
0.07162196189165115 0.5282225012779236 0.0
0.25373148918151855 0.527070939540863 0.0
0.19419340789318085 0.5297109484672546 0.0
0.31349387764930725 0.5272363424301147 0.0
0.37313446402549744 0.5270199179649353 0.0
0.4329495429992676 0.5274069309234619 0.0
0.49253740906715393 0.5270196795463562 0.0
0.5523557066917419 0.5274024605751038 0.0
1.3898069858551025 0.5277745127677917 0.0
1.3283581733703613 0.5270196795463562 0.0
0.6119403839111328 0.5270196795463562 0.0
1.2685397863388062 0.5274024605751038 0.0
0.6717586517333984 0.5274024605751038 0.0
0.7313433289527893 0.5270196795463562 0.0
1.20895516872406 0.5270196795463562 0.0
0.7911616563796997 0.5274024605751038 0.0
0.8507462739944458 0.5270196795463562 0.0
1.1491369009017944 0.5274024605751038 0.0
1.0895521640777588 0.5270196795463562 0.0
0.9105646014213562 0.5274024605751038 0.0
0.9701492786407471 0.5270196795463562 0.0
1.0297338962554932 0.5274024605751038 0.0
1.4776118993759155 0.5259945392608643 0.0
1.597015619277954 0.5255197882652283 0.0
1.7164177894592285 0.525999903678894 0.0
1.6834615468978882 0.8477573990821838 0.0
1.5822722911834717 0.6086509227752686 0.0
0.20459823310375214 0.6270732283592224 0.0
1.8037469387054443 0.6209055185317993 0.0
0.09990309923887253 0.8589919805526733 0.0
1.9000968933105469 0.8589919805526733 0.0
1.75603187084198 0.5789161324501038 0.0
0.10896337777376175 0.5982794761657715 0.0
1.8910366296768188 0.5982794761657715 0.0
1.4950518608093262 0.605266273021698 0.0
1.7049394845962524 0.6007562279701233 0.0
1.4387125968933105 0.5775743722915649 0.0
1.489302158355713 0.851039469242096 0.0
0.15732239186763763 0.5961292386054993 0.0
1.8436260223388672 0.5944437384605408 0.0
0.4399496018886566 0.6259797215461731 0.0
1.022565245628357 0.6257523894309998 0.0
[...]
POINT_DATA 348
SCALARS Psi double
LOOKUP_TABLE default
1.0878984745059195
1.0
1.0
1.076668469256644
1.0877880062308756
1.087545110472696
1.089146808444086
1.093872805577501
1.103351076028601
1.141821749179055
1.0
1.0
1.0
1.0
1.0
1.0
1.0
1.0
1.0
1.0
1.0
1.1342685463948647
1.0942751242409665
1.0844750354831834
1.079881911372408
1.0777145537983464
1.076859054192028
1.087981289090207
1.0867118737203665
1.0848223047273011
1.0824207999612772
1.0794798105856382
1.076023747953618
1.0721218737328342
1.067867293876566
1.0633834607860388
1.058758476421608
1.054092062072819
1.0494630468909552
1.0449565223378612
1.0406243933955637
1.036494424835623
1.032599619288091
1.0289672844690554
1.0256109400015736
1.0225183845118473
1.0196944968263213
1.0171381906735364
1.0148448620382096
1.012790584415186
1.0109687791865203
1.0093691715629332
1.0079826246132655
1.0067887562643618
1.00578037597583
1.004949402854886
1.0042890027962375
1.0037866646418079
1.003438299319076
1.003241199565995
1.003193444263998
1.003291448178427
1.0035346311375262
1.0039285742433683
1.0044762170590074
1.0051807818982688
1.006046235746199
1.0070859529070186
1.0083062724644176
1.0097144700031617
1.011316260526926
1.0131345528458293
1.0151740580343658
1.0174309700493593
1.019934678575611
1.022676493090147
1.0256555034855521
1.0288722148436156
1.0323240682515757
1.035990389185017
1.039839537792784
1.0438338440270747
1.047925536345238
1.0520543032562284
1.0561439082955961
1.0601072579917985
1.063838174018795
1.0672402127748204
1.070204758710059
1.0726291927367764
1.0744756476863007
1.075749127457689
1.0764613444357807
1.046786711109748
1.05188549749953
1.0201199545674664
1.005808648840524
1.0016730890732297
1.0036439487144642
1.0139159671409277
1.0733682570847223
1.0821127466395337
1.0311074484642158
1.0635343109924524
1.0566896057905442
1.04255300359473
1.0268241535057543
1.0156243623884154
1.0084497788026168
1.004363358749362
1.0028457867716802
1.0030421303403578
1.0054010944039997
1.0102988518924458
1.019045707142144
1.0762815970208386
1.0856765450456403
1.0292513434324881
1.0445295116975
1.0659083918864354
1.074034191606715
1.0030690600136967
1.0045811566254805
1.0038189305409806
1.0086117114269155
1.007031564622472
1.013238459437158
1.0232041804416907
1.0157540903958475
1.0374860201990455
1.0554784179709247
1.0719808302860097
1.0811616401264998
1.0372069616075066
1.0782438794756348
1.0863580194891456
1.053672817276495
1.0235734735172637
1.0130768691662628
1.0652546100949478
1.003197052473012
1.0035798881935636
1.0051657431279084
1.0063427129972855
1.009847796855546
1.0118732770505443
1.0179114426599625
1.0300947466121217
1.0464794892479878
1.0356947694515575
1.0123546184430499
1.0031387426964238
1.0079927420496273
1.0019375177825471
1.0902638557374287
1.080784317872814
1.0226367967517482
1.0445797931518357
1.076648652992472
1.086929774230514
1.0454993564028174
1.030180404416082
1.0004324779457143
1.0622233994945987
1.018259312227957
1.0105238643737668
1.0014801910947342
1.0321300518410075
1.0494026491767938
1.00228669242287
1.0028325832447518
1.0035487593324006
1.0056184817133795
1.0068375194662305
1.0105844966847417
1.0140169693415861
1.01958462462058
1.0716959174673106
1.0635402041394344
1.0033690888747584
1.0005515289266014
1.0019091530081183
1.0044737988317907
1.0011770794818946
1.073882678653497
1.0689326686853922
1.0837058532098658
1.0778577788647903
1.008051845411659
1.0609556648015988
1.0698224662033162
1.0035449095528766
1.0031568981133812
1.0033514355710713
1.0041283491621864
1.0045480023594853
1.006184409192771
1.0075849559331433
1.0055370177879097
1.0085721333130857
1.0117220718823776
1.0104033157148797
1.0139270178227922
1.020873177042026
1.0158334216377223
1.0270743050415634
1.0342521732263175
1.0515054291938828
1.0425620823573991
1.0395567065611535
1.0362112339411225
1.0980435920039133
1.0884747659977327
1.0302226293673078
1.0266177484462184
1.0193764487887327
1.0777981806244412
1.086996083617927
1.0498144934644735
1.0417081050560835
1.027115335910242
1.0339262736258121
1.0581499446394116
1.0211277923836946
1.0654241818171066
1.0754785720491211
1.071589655524788
1.0810291667557037
1.0859076136182286
1.0655604214028815
1.0740717861641007
1.0562842958538787
1.047032371277883
1.038362659914786
1.0306044752124561
1.0238980839152605
1.0163204858116224
1.0121235364305823
1.0182792587005494
1.0089275203721768
1.0137006778721842
1.0100775781267817
1.00650039028876
1.0073102832350656
1.0053049710572746
1.0047733073656622
1.0036843055083045
1.0039874088494394
1.0032948803011423
1.0031996899315199
1.0240373575828987
1.037782711153774
1.0540276655971688
1.024732127925459
1.0340237284795
1.0720977954053776
1.0654174776673142
1.076679888502809
1.0694555700113677
1.0590427058656982
1.0841870038584454
1.0751055971259473
1.0242340643880585
1.051239823873972
1.0196470454202289
1.0091319940554677
1.07906052942582
1.070403240157365
1.034444006344295
1.0027017717232876
1.0033116066653607
1.0039833364085744
1.0061442472404094
1.0075903524984562
1.0117379897082421
1.0131967721968622
1.02089482197634
1.0530712580073507
1.0269044500744016
1.0769456125866201
1.0853521982253411
1.0490327200726104
1.0329780828114208
1.0415769128202
1.0531510677116227
1.0023830257252762
1.002669318805727
1.0039418911336473
1.005021975539446
1.0079147626328095
1.0097441058479244
1.0144741786151459
1.025510829552022
1.0411378679621535
1.1079720339972996
1.0992860060360783
1.0766662395483484
1.0879553704915927
1.0607630654084115
1.0029734870243028
1.003251575736885
1.0031706622359362
1.0612209313493604
1.003752708678461
1.0043770222429045
1.0056003462581151
1.0053642798870397
1.0069008653554918
1.0083446693184093
1.0107080771129577
1.0101583380856995
1.0127990591731142
1.0154620518406456
1.0192794234283067
1.0265465388355406
1.068074896958595
1.03207164991569
1.0420100803880308
1.0488854790191868
1.0174362726640065
1.0457873258268318
1.030481826843184
1.03864716577614
1.0014570165754397
1.0217583110289157
1.0389659103822064
1.0837777927920298
1.0744046642618998
1.0002569121773366
1.0282062276242907
1.0692428658326414
1.0781093475385572
1.0039401956853695
1.0875215093190769
1.0771331067684864
1.087213640991448
1.0783251134840628
1.0690638753648485
1.0624278431759813
1.0620060165734508
1.018597516990545
1.001053800772142
1.0163453081958256
1.0065916817527125
1.0761908357874146
1.0872104888628682
1.0528187222834895
1.0469710938931727

SCALARS Omega double
LOOKUP_TABLE default
4.10027659139531
-10.32773079543604
-14.268649563397663
0.1321785705708628
4.492515426469059
-2.6837945533075893
-4.473557660634686
3.542292223091436
1.031478153519638
20.8426454603373
-8.188675201154066
-0.40947252232513004
-0.8985275653939497
-0.2342139594276072
-0.1136909786713577
-0.030612111190167393
-0.11116900932410596
-0.18643504131181962
-0.6569892800265066
-0.6110339256922785
-6.115745385050867
17.943670585109533
3.5124636782393654
-1.037908127012035
0.14534828364988617
0.033512257696516515
-0.32203140248005563
2.111361729825585
1.0918367791702894
0.7143021740896369
0.5849518485730737
0.5327239424929944
0.5070780229781177
0.47819019534534707
0.44153688695109167
0.397411780567092
0.34773268551741804
0.29624639566452565
0.24497892024275972
0.1961831334919743
0.15080900292460925
0.10952048225670208
0.07261347350639556
0.040333453579127
0.012569702993087612
-0.011155351329583589
-0.031081819755355282
-0.04752459062711464
-0.060811397862210195
-0.0715413250942377
-0.08001355261642505
-0.0865831071208732
-0.0915138978499951
-0.09520530149861747
-0.09785149337483755
-0.09967300325199559
-0.10081314043691376
-0.10146383312963869
-0.10170958672120149
-0.10162686877438198
-0.10124796093657765
-0.10059290948863239
-0.09964829274356597
-0.09834303166584665
-0.09661228012447659
-0.09434272394968399
-0.09142625853745055
-0.08763222668431193
-0.08279843107413143
-0.07668844523080316
-0.06909527064200013
-0.05954731729103302
-0.04780290324996653
-0.033664973885462295
-0.016472751712207544
0.00391049911403644
0.027743081704728525
0.055309120537455486
0.08677693338047161
0.12203690492204408
0.16057613136083732
0.20168960504347633
0.2440135057808179
0.2859350888697341
0.32478694600395264
0.35760137009316784
0.37954715493405494
0.3852480049243828
0.370655621967212
0.33000239086053684
0.2610341029399499
0.16510919313859534
0.06635078647436546
0.31510667870974773
0.339362779257558
-0.11646412749212344
-0.1309118566744317
-0.10570544244128639
-0.11366535237417605
-0.12385496956468355
0.7178328075969673
0.8448250621504843
0.0469193001148698
0.46988162820800516
0.4081247471793521
0.1669496075582846
0.0028975471754227947
-0.07395212630508936
-0.10007944145244937
-0.10519634428525608
-0.1038554859555617
-0.10230780758084826
-0.09843631749301315
-0.08460653283898449
-0.04068562454058506
0.3065098106910701
0.09488991775563782
0.05186250842975246
0.2173010543421862
0.4399174100869866
0.5280590909253071
-0.10168073739804116
-0.09715105264443327
-0.10234065547099931
-0.08372762102510745
-0.09659159909592274
-0.07320444395688358
-0.011171932718893815
-0.04893133638164744
0.11627850663337529
0.32074728071659603
0.4093844304730558
0.4908519705420989
0.13352109534942075
2.249060120061626
2.527400928682852
0.31560108615766946
0.0072441767332752875
-0.3187831354448701
0.4342894838820217
-0.10231092622108516
-0.09981692806405466
-0.10036161191588927
-0.09157790155478093
-0.08711259275202893
-0.06873062135340949
-0.04655457285695203
0.04633405892939446
0.21351020278403884
0.04064205045433354
-0.14344316639389681
-0.11680355787947141
-0.12342029435511742
-0.10619346693417286
0.9676272328609733
0.5747828401965899
-0.031028869523733727
0.23799457140299685
0.140499514451526
0.4503874092276326
0.22190937382063364
0.06523625353621922
-0.09857906644496586
0.387523224205541
-0.030069434434409462
-0.4188839881074043
-0.15081365778135217
0.03255470394298562
0.2753749214094985
-0.10461616328969545
-0.10807518480278806
-0.10488149130466477
-0.11268902260609298
-0.10497213967851644
-0.11310599821853926
-0.0819065312013139
-0.07324263405403945
0.8361155033640447
0.692307188827644
-0.2008834015344743
-0.09796264604997278
-0.14249513301139213
-0.20891313998481487
-0.11464430760698459
0.32160350023341655
0.39908267500534245
0.5432661528299823
0.5181516061358714
-0.3016400703848752
0.376258867095564
0.46768784739584274
-0.10188407620136204
-0.10167070349686201
-0.1003842107955592
-0.09788440007489173
-0.10072930314616219
-0.0973162689827386
-0.08620622829729174
-0.09350530320948838
-0.09023276549149128
-0.07756313163718317
-0.07426981170367902
-0.056273975081851835
-0.024308275533483782
-0.05649859200342566
0.023020098190724786
0.08697762293821792
0.268906215862017
0.17062922353080084
-0.6191909294917668
-0.5147470841169077
2.3294452251188176
1.9777754326562158
-0.01150973535536682
-0.23816940700230216
-0.12062838988453109
0.1669067765736704
-1.0217322041321912
0.26552628033287523
0.1801728004576965
0.039206147176571574
0.10148348527303865
0.3466251469721325
-0.00856666896985616
0.3920916325696205
0.21860644186084374
0.3652351841192586
0.5338230402322879
0.7124939981820186
0.42341547286754183
0.4972714401490009
0.3222716188816131
0.2188035713684558
0.12752218731498716
0.05381235952117382
-0.0016606519172527665
-0.0414276504456444
-0.06554031119323107
-0.041222420552532134
-0.08056138243522545
-0.0676089931618231
-0.08431587013587262
-0.09007820841112082
-0.09403104486061635
-0.09919241075173563
-0.0958260682429075
-0.09921886260678404
-0.10139610467726987
-0.10184407580574943
-0.1010833229589114
0.01396225084988352
0.13979943912240464
0.30760252635710256
-0.26389127315737704
0.09725913339108531
0.6218180596335275
0.5337798651870626
2.9039953778016745
2.155648207265885
0.3856460207454306
0.4315959595356983
0.47340738223763745
0.005161758004360891
0.30623706254319594
-0.0244103848975257
-0.28101069591497096
0.5921227818732433
0.5085895250222102
0.07552629316157168
-0.10322296887731179
-0.10472893921779593
-0.10082993819186344
-0.10385718316140957
-0.09299651549749119
-0.08998797085806957
-0.07147385155956908
-0.041828838957407376
0.3101615018917648
0.034135990374424344
1.2523254612617793
1.4785748227905053
0.2651621003446936
0.09036934035609746
0.18033095470584423
0.41361737900018397
-0.1053719668988946
-0.10433475528592148
-0.11016426596226794
-0.10444550632402824
-0.11200116001573601
-0.09772746947777095
-0.09915262606974459
-0.02849004325169282
0.1442310633771165
5.598342302591975
5.4033310216291195
-0.012855761299631624
2.097569030710554
0.48885287031241126
-0.1026592897309192
-0.10312383634480445
-0.10135194605798109
0.4019968996810363
-0.09983805538478502
-0.10270297647368154
-0.1010056688839536
-0.09587048404946587
-0.09124247914476227
-0.09487819303128224
-0.08672286982800691
-0.07944071603574161
-0.06713690872751517
-0.06531830849045046
-0.04228617850092987
0.010999425356935166
0.4886783081711094
0.060394918391827916
0.16287202191327899
0.24370900185569297
-0.06902117037216739
0.2226250902268013
0.06938332803352683
0.1491412761468482
-0.10985028243038394
-0.16829937846686704
0.15224910600440564
0.3821709177778277
0.3751898652401951
-0.0890014960413517
0.03241088177723672
0.4400053669957668
0.5321896093696399
-0.1340929809048911
0.4668976837180783
0.011219789281341179
-0.5101373601020298
0.3408516063694566
1.020318573090159
0.9271598518391032
0.3733238666502766
-0.02622250183074627
-0.17256911002194564
-0.05296720420535819
-0.1661729546622797
0.1185608031848908
1.2482118262421973
0.5729328676154378
-1.2167721124874193

SCALARS Vx_analytic double
LOOKUP_TABLE default
4.10027659139531
-10.32773079543604
-14.268649563397663
0.13210637964645428
4.492515426469059
-2.6837945533075893
-4.473557660634686
3.542292223091436
1.031478153519638
20.8426454603373
-8.188675201154066
-0.40947252232513004
-0.8985275653939497
-0.2342139594276072
-0.1136909786713577
-0.030612111190167393
-0.11116900932410596
-0.18643504131181962
-0.6569892800265064
-0.6110339256922785
-6.115745385050867
17.943670585109533
3.5132646958976674
-1.0157705221645201
0.14755553987752998
0.034519698997962346
-0.3200761990903502
2.111361729825585
1.0918367791702894
0.7143021740896369
0.5849518485730737
0.5327239424929944
0.5070780229781177
0.47819019534534707
0.44153688695109167
0.397411780567092
0.34773268551741804
0.29624639566452565
0.24497892024275972
0.1961831334919743
0.15080900292460925
0.10952048225670208
0.07261347350639556
0.040333453579127
0.012569702993087612
-0.011155351329583589
-0.031081819755355282
-0.04752459062711464
-0.060811397862210195
-0.0715413250942377
-0.08001355261642505
-0.0865831071208732
-0.0915138978499951
-0.09520530149861747
-0.09785149337483755
-0.09967300325199559
-0.10081314043691376
-0.10146383312963869
-0.10170958672120149
-0.10162686877438198
-0.10124782765055071
-0.10059294204194744
-0.09964845504938082
-0.09834350190110018
-0.09661312131879544
-0.09434451871860661
-0.09142861870458556
-0.08763597043768918
-0.08280334278890776
-0.07669661379637734
-0.06910496134825302
-0.0595614485139091
-0.04782298754005713
-0.0336724603964186
-0.016485391452378907
0.0038884095097787537
0.02772151838471373
0.05529747411442866
0.08676827989982645
0.12202034388196363
0.16057453055739376
0.20170954643103678
0.24406643450331772
0.2860015838006593
0.32489654469077245
0.357712869374514
0.3797278569292104
0.3856007159068149
0.3710283160670918
0.3304074131023575
0.2613683054363829
0.16535185060587185
0.06630766750220908
0.30728902821796816
0.3371706145209251
-0.11573714656013716
-0.13079943948013387
-0.10570535512391599
-0.11372780229948423
-0.12456353024137606
0.7269997387825593
0.8347617254271198
0.04600727050653728
0.46799101154747236
0.41050734696060426
0.1669214628909998
0.003136668823903549
-0.07378379845270833
-0.10001567391903485
-0.10518127231499258
-0.10385296486822206
-0.10231052803076672
-0.0984683216414873
-0.08473012843988507
-0.04101671792383614
0.308631736636768
0.10164156815112207
0.051537871129861745
0.21754434337178674
0.44228040793502105
0.5270414712543977
-0.10168036655234547
-0.09715932322659983
-0.10233728464411668
-0.08377000668667474
-0.09657556248298413
-0.07315791420022058
-0.011102327663138135
-0.04907507932942388
0.11625277765604933
0.32025822989122255
0.4115959586539666
0.4921555331208415
0.13340677181581564
2.2562437466215615
2.4658842148377076
0.31620104478254807
0.007045941752139673
-0.31995283261096136
0.43353010341348075
-0.10230954769970199
-0.09981884026472033
-0.10035371804727541
-0.09159326976904342
-0.08708221543359793
-0.06878611534530482
-0.0464833034385791
0.046411186946959684
0.21338885459220466
0.041510521744972724
-0.14299730792784374
-0.11677288635864114
-0.12376119510985317
-0.10620445994408725
0.8926160215205451
0.5831067609988341
-0.03178275469461199
0.23793720672139307
0.14188665745980247
0.4592261061066625
0.22203848098081846
0.0650779669972778
-0.09857956794858692
0.3884750777202448
-0.030156942438430364
-0.4175139088450291
-0.1508969166740647
0.03283307489491306
0.27463727441335156
-0.10461649295414958
-0.10806434632249302
-0.10490610193156645
-0.11263371909575687
-0.10508948353649866
-0.11291175052287566
-0.08229300621660238
-0.07287632478518846
0.828237082662906
0.6979119990900465
-0.2006682243596444
-0.09797116703088789
-0.14243482955313083
-0.20985491953467142
-0.1146842597783623
0.32291998604921346
0.40046616035990346
0.5455847679291237
0.518208742767744
-0.3007930965710716
0.3759623336509326
0.4672919894446748
-0.10188333045339104
-0.1016702073110304
-0.10038502890796387
-0.09788823854675517
-0.10072764797374073
-0.09731253721591344
-0.0862290154125647
-0.09351735548255061
-0.09022641066298846
-0.07755275575139309
-0.07432039420404307
-0.05635099744409792
-0.024297351235120473
-0.05648791947704416
0.023012124120603775
0.08694559797827728
0.26873183033779713
0.17053225418634585
-0.6002055555256535
-0.5404004018209164
2.3324891610305607
1.9952133237032934
-0.014257358255224839
-0.23526584133959763
-0.12196078555212364
0.16889580909647398
-1.0064285288163406
0.26576571577975655
0.18013718698293749
0.039050865948652286
0.101355642600665
0.34736219757450293
-0.008684319444193038
0.39328239635324447
0.21971500681184694
0.3663367858564234
0.5347506766808937
0.7167242441775594
0.42311179378163644
0.4970539901841713
0.32210796456542595
0.2187517832969881
0.12751921381714848
0.05384393201624421
-0.00163228942066473
-0.041511911550645826
-0.06558852477115132
-0.04119317859995708
-0.08058918605330757
-0.06759113277234934
-0.08430334731521998
-0.0900915016291842
-0.09402489191073204
-0.09918920923254826
-0.09583184572164906
-0.0992206460828491
-0.10139490965510377
-0.10184361020515093
-0.10108341549804606
0.013839356920072364
0.13970756573244048
0.30797848305190473
-0.26982869697735345
0.09687450540464886
0.6181302600909425
0.537727513152489
2.8036412452533113
1.9883210013783583
0.3871698791886547
0.4280201239664766
0.4775215942838784
0.004780602870161407
0.30695853228079883
-0.02464960142736751
-0.28242466287450635
0.5891893005315026
0.5124021151991406
0.07569952319075901
-0.10322246035633807
-0.10472312727565816
-0.10084273201007303
-0.1038241951238076
-0.09306743180288338
-0.08988417115473105
-0.07166214313221174
-0.04160908275382682
0.30944238264525015
0.03395512403854265
1.2650001535191262
1.4602339633011885
0.2655939521565018
0.09019050064835323
0.1803862359396081
0.4148559104648642
-0.10536896235447747
-0.10433930005249938
-0.11013665881849516
-0.10448760294827826
-0.11189194719586877
-0.09790551172982509
-0.09883423321629166
-0.02803120503626053
0.14415472576217195
5.320999423523962
5.209113620693756
-0.01209332746357014
2.0940044611018145
0.48593036170383463
-0.1026578214573118
-0.10312143453262425
-0.10135356154035637
0.4010911438352805
-0.09984342184098192
-0.10269515363957893
-0.10099102635381282
-0.09589104254706184
-0.09127527610625016
-0.09484443757977545
-0.08667060521092507
-0.07952305266772612
-0.06724861035058421
-0.06522696170436186
-0.042173116022291325
0.011130154359655005
0.48724962629616814
0.06049584216775549
0.16281780513829616
0.2434373959199406
-0.06948058667620319
0.22266343541757858
0.06925833770225645