# vtk DataFile Version 1.0
2D Simulation C++
ASCII
DATASET UNSTRUCTURED_GRID
FIELD FieldData 1
NODES 1 2 int
348 601

POINTS 348 double
0.0 0.5 0.0
0.0 1.0 0.0
2.0 1.0 0.0
2.0 0.5 0.0
0.0 0.528801679611206 0.0
0.0 0.564507782459259 0.0
0.0 0.6110168099403381 0.0
0.0 0.6721802353858948 0.0
0.0 0.7528436183929443 0.0
0.0 0.8593378663063049 0.0
0.16666941344738007 1.0 0.0
0.3333356976509094 1.0 0.0
0.5000020265579224 1.0 0.0
0.6666678786277771 1.0 0.0
0.8333337306976318 1.0 0.0
1.0 1.0 0.0
1.1666662693023682 1.0 0.0
1.3333321809768677 1.0 0.0
1.4999979734420776 1.0 0.0
1.6666642427444458 1.0 0.0
1.8333306312561035 1.0 0.0
2.0 0.8593378663063049 0.0
2.0 0.7528436183929443 0.0
2.0 0.6721802353858948 0.0
2.0 0.6110168099403381 0.0
2.0 0.564507782459259 0.0
2.0 0.528801679611206 0.0
0.029850948601961136 0.5 0.0
0.05970168858766556 0.5 0.0
0.08955242484807968 0.5 0.0
0.1194031685590744 0.5 0.0
0.14925390481948853 0.5 0.0
0.17910465598106384 0.5 0.0
0.20895539224147797 0.5 0.0
0.2388061285018921 0.5 0.0
0.2686568796634674 0.5 0.0
0.29850760102272034 0.5 0.0
0.32835835218429565 0.5 0.0
0.35820910334587097 0.5 0.0
0.3880598247051239 0.5 0.0
0.4179105758666992 0.5 0.0
0.44776129722595215 0.5 0.0
0.47761204838752747 0.5 0.0
0.5074627995491028 0.5 0.0
0.5373135209083557 0.5 0.0
0.5671642422676086 0.5 0.0
0.5970150232315063 0.5 0.0
0.6268657445907593 0.5 0.0
0.6567164659500122 0.5 0.0
0.6865672469139099 0.5 0.0
0.7164179682731628 0.5 0.0
0.7462686896324158 0.5 0.0
0.7761194705963135 0.5 0.0
0.8059701919555664 0.5 0.0
0.8358209133148193 0.5 0.0
0.865671694278717 0.5 0.0
0.89552241563797 0.5 0.0
0.9253731369972229 0.5 0.0
0.9552239179611206 0.5 0.0
0.9850746393203735 0.5 0.0
1.0149253606796265 0.5 0.0
1.0447760820388794 0.5 0.0
1.0746268033981323 0.5 0.0
1.1044776439666748 0.5 0.0
1.1343283653259277 0.5 0.0
1.1641790866851807 0.5 0.0
1.1940298080444336 0.5 0.0
1.2238805294036865 0.5 0.0
1.2537312507629395 0.5 0.0
1.2835819721221924 0.5 0.0
1.3134328126907349 0.5 0.0
1.3432835340499878 0.5 0.0
1.3731342554092407 0.5 0.0
1.4029849767684937 0.5 0.0
1.4328356981277466 0.5 0.0
1.4626864194869995 0.5 0.0
1.492537260055542 0.5 0.0
1.522387981414795 0.5 0.0
1.5522387027740479 0.5 0.0
1.5820894241333008 0.5 0.0
1.6119401454925537 0.5 0.0
1.6417908668518066 0.5 0.0
1.6716417074203491 0.5 0.0
1.701492428779602 0.5 0.0
1.731343150138855 0.5 0.0
1.761193871498108 0.5 0.0
1.7910445928573608 0.5 0.0
1.8208953142166138 0.5 0.0
1.8507460355758667 0.5 0.0
1.8805968761444092 0.5 0.0
1.910447597503662 0.5 0.0
1.940298318862915 0.5 0.0
1.970149040222168 0.5 0.0
1.7358819246292114 0.7499510645866394 0.0
0.2656642198562622 0.7486277222633362 0.0
0.49981194734573364 0.737183690071106 0.0
0.74151611328125 0.7359843254089355 0.0
0.9774143695831299 0.7371892929077148 0.0
1.201690912246704 0.7367381453514099 0.0
1.447761058807373 0.7383390665054321 0.0
1.8591958284378052 0.6421071290969849 0.0
0.14080412685871124 0.6421071290969849 0.0
1.588537573814392 0.6783608794212341 0.0
0.2553686201572418 0.6221352219581604 0.0
1.7466964721679688 0.6278358101844788 0.0
0.38199201226234436 0.6273008584976196 0.0
0.5013589859008789 0.6272794008255005 0.0
0.6207823157310486 0.6272526383399963 0.0
0.7401852607727051 0.627252459526062 0.0
0.8595882654190063 0.6272523999214172 0.0
0.9701492786407471 0.6212864518165588 0.0
1.0807102918624878 0.6272523999214172 0.0
1.2001131772994995 0.6272523999214172 0.0
1.3195161819458008 0.6272523999214172 0.0
1.4488563537597656 0.6310953497886658 0.0
1.9247323274612427 0.5706554055213928 0.0
0.07526770234107971 0.5706554055213928 0.0
1.5377081632614136 0.5910930037498474 0.0
1.6566967964172363 0.5934624075889587 0.0
1.8074009418487549 0.5708622932434082 0.0
0.1940300166606903 0.5737577676773071 0.0
1.0286364555358887 0.5665481686592102 0.0
1.14803946018219 0.5665481686592102 0.0
0.9116620421409607 0.5665481686592102 0.0
1.2674424648284912 0.5665481686592102 0.0
0.7922590970993042 0.5665481686592102 0.0
0.6728560328483582 0.5665482878684998 0.0
0.5534531474113464 0.5665481686592102 0.0
1.3892061710357666 0.5727682709693909 0.0
0.43402159214019775 0.5665869116783142 0.0
0.3146642744541168 0.5667200088500977 0.0
1.8656742572784424 0.5607567429542542 0.0
0.1343258023262024 0.5607567429542542 0.0
1.5970147848129272 0.5642029047012329 0.0
1.8783670663833618 0.7786769866943359 0.0
0.12163297086954117 0.7786769866943359 0.0
1.7164177894592285 0.562579333782196 0.0
1.4776118993759155 0.5620538592338562 0.0
1.5857784748077393 0.867691159248352 0.0
0.25373148918151855 0.5588531494140625 0.0
0.9701492786407471 0.5582930445671082 0.0
1.0895521640777588 0.5582930445671082 0.0
0.8507462739944458 0.5582930445671082 0.0
1.20895516872406 0.5582930445671082 0.0
0.7313433289527893 0.5582930445671082 0.0
1.3283581733703613 0.5582930445671082 0.0
0.6119403839111328 0.5582930445671082 0.0
0.49253740906715393 0.5582930445671082 0.0
0.37313446402549744 0.5582956075668335 0.0
0.36864349246025085 0.7376502752304077 0.0
0.602456271648407 0.7355343103408813 0.0
0.8441241383552551 0.7366551756858826 0.0
1.3355978727340698 0.7366551160812378 0.0
1.0895521640777588 0.7378703355789185 0.0
0.07051979005336761 0.6486480832099915 0.0
1.9294801950454712 0.6486480832099915 0.0
1.5086064338684082 0.6743985414505005 0.0
1.6785967350006104 0.6649783849716187 0.0
1.9543375968933105 0.5452249050140381 0.0
0.04566239193081856 0.5452249050140381 0.0
1.6567095518112183 0.5496091842651367 0.0
1.53738272190094 0.5491842031478882 0.0
0.91306072473526 0.8965699672698975 0.0
1.7782752513885498 0.5446287989616394 0.0
1.4163299798965454 0.5447981357574463 0.0
0.4287482798099518 0.8945969939231873 0.0
1.2610714435577393 0.8950135707855225 0.0
0.4313095211982727 0.6832783222198486 0.0
0.31561949849128723 0.6858259439468384 0.0
1.029850721359253 0.6781684160232544 0.0
0.9082015752792358 0.6848641633987427 0.0
1.1492537260055542 0.6781684160232544 0.0
0.7886138558387756 0.678956151008606 0.0
1.2709345817565918 0.684736430644989 0.0
0.6685023903846741 0.6868807673454285 0.0
1.4007169008255005 0.6702371835708618 0.0
0.5483440160751343 0.6792802214622498 0.0
0.19808045029640198 0.6887137293815613 0.0
1.797759771347046 0.6853783130645752 0.0
0.6811949610710144 0.8757594227790833 0.0
1.0189321041107178 0.8474968671798706 0.0
0.7922950983047485 0.8446238040924072 0.0
1.3765455484390259 0.8590760827064514 0.0
1.1571698188781738 0.8478953838348389 0.0
1.8954496383666992 0.5359624624252319 0.0
1.8360060453414917 0.5359931588172913 0.0
0.10455036163330078 0.5359624624252319 0.0
0.16417928040027618 0.5353734493255615 0.0
0.5530290007591248 0.8422092199325562 0.0
0.2832632064819336 0.5367912650108337 0.0
0.22469767928123474 0.5394234657287598 0.0
0.9405550956726074 0.5357381105422974 0.0
0.9997434020042419 0.5357381105422974 0.0
1.0600273609161377 0.5365630984306335 0.0
1.1191463470458984 0.5357381105422974 0.0
0.8802711367607117 0.5365630984306335 0.0
0.8211521506309509 0.5357381105422974 0.0
1.2385493516921997 0.5357381105422974 0.0
1.179430365562439 0.5365630984306335 0.0
0.7608681321144104 0.5365630984306335 0.0
0.7017492055892944 0.5357381105422974 0.0
1.2988333702087402 0.5365630984306335 0.0
1.357560396194458 0.5390686392784119 0.0
0.5823462605476379 0.5357381105422974 0.0
0.6414651870727539 0.5365630984306335 0.0
0.5220622420310974 0.5365630984306335 0.0
0.4629422128200531 0.535739541053772 0.0
0.3435409665107727 0.5357455015182495 0.0
0.4026572108268738 0.5365669131278992 0.0
0.21006634831428528 0.8590372204780579 0.0
1.7943172454833984 0.8627070188522339 0.0
0.06134982034564018 0.7191494703292847 0.0
1.938650131225586 0.7191494703292847 0.0
1.634666085243225 0.7584379315376282 0.0
0.3355695903301239 0.8387951850891113 0.0
1.537941336631775 0.7633647918701172 0.0
1.9670078754425049 0.574067234992981 0.0
0.032992132008075714 0.574067234992981 0.0
1.6862140893936157 0.5314788222312927 0.0
1.6272135972976685 0.5317342281341553 0.0
1.5077245235443115 0.5309156775474548 0.0
1.5668202638626099 0.5316618084907532 0.0
1.7466963529586792 0.5298213958740234 0.0
1.4473658800125122 0.5297333002090454 0.0
1.804386019706726 0.5275400876998901 0.0
1.9283779859542847 0.5282225012779236 0.0
1.8656879663467407 0.5267112255096436 0.0
0.13432854413986206 0.5271331071853638 0.0
0.07162196189165115 0.5282225012779236 0.0
0.25373148918151855 0.527070939540863 0.0
0.19419340789318085 0.5297109484672546 0.0
0.31349387764930725 0.5272363424301147 0.0
0.37313446402549744 0.5270199179649353 0.0
0.4329495429992676 0.5274069309234619 0.0
0.49253740906715393 0.5270196795463562 0.0
0.5523557066917419 0.5274024605751038 0.0
1.3898069858551025 0.5277745127677917 0.0
1.3283581733703613 0.5270196795463562 0.0
0.6119403839111328 0.5270196795463562 0.0
1.2685397863388062 0.5274024605751038 0.0
0.6717586517333984 0.5274024605751038 0.0
0.7313433289527893 0.5270196795463562 0.0
1.20895516872406 0.5270196795463562 0.0
0.7911616563796997 0.5274024605751038 0.0
0.8507462739944458 0.5270196795463562 0.0
1.1491369009017944 0.5274024605751038 0.0
1.0895521640777588 0.5270196795463562 0.0
0.9105646014213562 0.5274024605751038 0.0
0.9701492786407471 0.5270196795463562 0.0
1.0297338962554932 0.5274024605751038 0.0
1.4776118993759155 0.5259945392608643 0.0
1.597015619277954 0.5255197882652283 0.0
1.7164177894592285 0.525999903678894 0.0
1.6834615468978882 0.8477573990821838 0.0
1.5822722911834717 0.6086509227752686 0.0
0.20459823310375214 0.6270732283592224 0.0
1.8037469387054443 0.6209055185317993 0.0
0.09990309923887253 0.8589919805526733 0.0
1.9000968933105469 0.8589919805526733 0.0
1.75603187084198 0.5789161324501038 0.0
0.10896337777376175 0.5982794761657715 0.0
1.8910366296768188 0.5982794761657715 0.0
1.4950518608093262 0.605266273021698 0.0
1.7049394845962524 0.6007562279701233 0.0
1.4387125968933105 0.5775743722915649 0.0
1.489302158355713 0.851039469242096 0.0
0.15732239186763763 0.5961292386054993 0.0
1.8436260223388672 0.5944437384605408 0.0
0.4399496018886566 0.6259797215461731 0.0
1.022565245628357 0.6257523894309998 0.0
[...]
POINT_DATA 348
SCALARS Psi double
LOOKUP_TABLE default
1.087898474505917
1.0
1.0
1.0766684692566442
1.0877880062308731
1.0875451104726939
1.0891468084440845
1.0938728055774996
1.1033510760286
1.141821749179054
1.0
1.0
1.0
1.0
1.0
1.0
1.0
1.0
1.0
1.0
1.0
1.1342685463948654
1.0942751242409674
1.0844750354831842
1.079881911372409
1.0777145537983468
1.0768590541920284
1.087981289090205
1.0867118737203654
1.0848223047273007
1.0824207999612774
1.0794798105856385
1.0760237479536188
1.0721218737328346
1.0678672938765668
1.0633834607860395
1.0587584764216091
1.05409206207282
1.0494630468909565
1.0449565223378627
1.0406243933955655
1.0364944248356247
1.032599619288093
1.028967284469057
1.0256109400015747
1.0225183845118484
1.019694496826322
1.0171381906735368
1.01484486203821
1.0127905844151863
1.0109687791865207
1.0093691715629336
1.007982624613266
1.006788756264362
1.0057803759758297
1.004949402854886
1.004289002796238
1.0037866646418083
1.0034382993190762
1.003241199565995
1.0031934442639983
1.003291448178427
1.0035346311375264
1.0039285742433686
1.0044762170590071
1.0051807818982685
1.0060462357461986
1.0070859529070186
1.0083062724644174
1.0097144700031615
1.011316260526926
1.0131345528458293
1.015174058034366
1.0174309700493598
1.019934678575612
1.0226764930901484
1.0256555034855537
1.0288722148436173
1.032324068251578
1.0359903891850193
1.0398395377927858
1.0438338440270762
1.0479255363452395
1.0520543032562304
1.0561439082955983
1.0601072579918012
1.0638381740187972
1.0672402127748222
1.0702047587100605
1.0726291927367775
1.0744756476863015
1.0757491274576891
1.076461344435781
1.0467867111097493
1.0518854974995298
1.0201199545674668
1.0058086488405245
1.0016730890732297
1.0036439487144642
1.013915967140928
1.0733682570847236
1.0821127466395333
1.031107448464217
1.0635343109924527
1.0566896057905462
1.0425530035947306
1.026824153505755
1.0156243623884156
1.0084497788026172
1.0043633587493623
1.0028457867716805
1.003042130340358
1.0054010944039997
1.0102988518924456
1.019045707142145
1.07628159702084
1.0856765450456392
1.0292513434324895
1.0445295116975017
1.0659083918864374
1.0740341916067153
1.0030690600136971
1.0045811566254808
1.003818930540981
1.0086117114269153
1.0070315646224726
1.0132384594371582
1.0232041804416918
1.015754090395848
1.037486020199047
1.0554784179709251
1.071980830286011
1.0811616401264996
1.0372069616075086
1.0782438794756355
1.0863580194891445
1.0536728172764973
1.0235734735172648
1.013076869166263
1.065254610094948
1.0031970524730123
1.003579888193564
1.0051657431279086
1.0063427129972855
1.0098477968555464
1.011873277050544
1.017911442659963
1.0300947466121233
1.0464794892479887
1.035694769451558
1.0123546184430505
1.003138742696424
1.007992742049627
1.001937517782547
1.0902638557374278
1.0807843178728154
1.0226367967517493
1.0445797931518372
1.0766486529924726
1.086929774230512
1.0454993564028194
1.0301804044160836
1.0004324779457143
1.0622233994946009
1.0182593122279577
1.0105238643737668
1.001480191094734
1.0321300518410081
1.0494026491767943
1.00228669242287
1.0028325832447518
1.0035487593324004
1.00561848171338
1.0068375194662305
1.010584496684742
1.0140169693415866
1.0195846246205806
1.0716959174673102
1.063540204139436
1.0033690888747586
1.0005515289266012
1.0019091530081186
1.0044737988317907
1.0011770794818942
1.0738826786534983
1.068932668685394
1.0837058532098656
1.077857778864791
1.0080518454116594
1.0609556648015992
1.0698224662033164
1.003544909552877
1.0031568981133814
1.0033514355710715
1.0041283491621866
1.0045480023594857
1.0061844091927712
1.0075849559331431
1.0055370177879097
1.008572133313086
1.011722071882378
1.0104033157148797
1.0139270178227924
1.0208731770420267
1.0158334216377225
1.027074305041565
1.034252173226319
1.0515054291938837
1.0425620823574004
1.0395567065611528
1.0362112339411227
1.0980435920039122
1.0884747659977336
1.0302226293673087
1.0266177484462184
1.0193764487887333
1.0777981806244419
1.0869960836179253
1.0498144934644755
1.0417081050560852
1.0271153359102438
1.0339262736258141
1.058149944639414
1.0211277923836954
1.0654241818171089
1.075478572049122
1.0715896555247895
1.081029166755704
1.0859076136182275
1.0655604214028822
1.074071786164101
1.0562842958538794
1.0470323712778844
1.0383626599147875
1.030604475212458
1.0238980839152616
1.0163204858116226
1.0121235364305823
1.0182792587005498
1.0089275203721766
1.0137006778721844
1.010077578126782
1.0065003902887597
1.007310283235066
1.0053049710572746
1.004773307365662
1.0036843055083047
1.0039874088494396
1.0032948803011423
1.0031996899315199
1.0240373575829003
1.037782711153776
1.0540276655971708
1.0247321279254595
1.0340237284795015
1.0720977954053776
1.0654174776673162
1.0766798885028084
1.0694555700113684
1.0590427058657002
1.084187003858445
1.0751055971259489
1.0242340643880596
1.0512398238739737
1.0196470454202295
1.0091319940554677
1.07906052942582
1.0704032401573667
1.034444006344296
1.0027017717232878
1.0033116066653611
1.0039833364085746
1.00614424724041
1.0075903524984562
1.0117379897082424
1.0131967721968624
1.020894821976341
1.0530712580073511
1.026904450074403
1.076945612586621
1.0853521982253402
1.0490327200726126
1.0329780828114223
1.0415769128202017
1.0531510677116245
1.0023830257252764
1.002669318805727
1.0039418911336475
1.005021975539446
1.00791476263281
1.0097441058479244
1.014474178615146
1.0255108295520226
1.0411378679621541
1.1079720339972985
1.0992860060360792
1.0766662395483484
1.0879553704915905
1.0607630654084115
1.002973487024303
1.0032515757368852
1.0031706622359366
1.0612209313493608
1.0037527086784614
1.004377022242905
1.0056003462581156
1.00536427988704
1.0069008653554918
1.0083446693184097
1.0107080771129582
1.010158338085699
1.0127990591731144
1.015462051840646
1.0192794234283074
1.0265465388355415
1.0680748969585951
1.032071649915691
1.0420100803880317
1.0488854790191877
1.0174362726640074
1.045787325826833
1.030481826843186
1.0386471657761416
1.00145701657544
1.0217583110289161
1.0389659103822082
1.0837777927920293
1.0744046642619014
1.0002569121773364
1.028206227624292
1.069242865832643
1.0781093475385575
1.0039401956853693
1.0875215093190744
1.0771331067684866
1.0872136409914466
1.0783251134840641
1.0690638753648476
1.0624278431759822
1.0620060165734533
1.0185975169905457
1.0010538007721421
1.016345308195826
1.006591681752713
1.0761908357874148
1.0872104888628664
1.0528187222834888
1.0469710938931729

SCALARS Omega double
LOOKUP_TABLE default
4.100276591395571
-10.327730795436075
-14.268649563397696
0.13217857057099586
4.492515426468507
-2.683794553307782
-4.473557660634768
3.5422922230914713
1.0314781535196125
20.842645460337284
-8.188675201154101
-0.40947252232514986
-0.8985275653939453
-0.23421395942761805
-0.11369097867136595
-0.030612111190202868
-0.11116900932424224
-0.1864350413119295
-0.6569892800265937
-0.6110339256923515
-6.115745385050943
17.943670585109484
3.5124636782392598
-1.0379081270119972
0.14534828365041616
0.03351225769557252
-0.32203140247973044
2.1113617298255227
1.0918367791702273
0.7143021740896053
0.5849518485730609
0.532723942492991
0.5070780229781188
0.4781901953453499
0.44153688695109505
0.39741178056709525
0.34773268551742126
0.29624639566452865
0.24497892024276266
0.19618313349197714
0.15080900292461222
0.10952048225670519
0.07261347350639887
0.04033345357913052
0.012569702993091333
-0.011155351329579694
-0.031081819755351243
-0.047524590627110515
-0.06081139786220602
-0.0715413250942335
-0.08001355261642085
-0.08658310712086903
-0.09151389784999099
-0.09520530149861346
-0.09785149337483363
-0.09967300325199183
-0.10081314043691017
-0.10146383312963528
-0.10170958672119829
-0.10162686877437897
-0.10124796093657482
-0.10059290948862973
-0.09964829274356349
-0.09834303166584432
-0.0966122801244744
-0.09434272394968196
-0.09142625853744872
-0.08763222668431032
-0.08279843107413007
-0.07668844523080207
-0.06909527064199932
-0.05954731729103252
-0.047802903249966396
-0.033664973885462565
-0.016472751712208248
0.003910499114035272
0.027743081704726877
0.05530912053745336
0.08677693338046903
0.12203690492204113
0.1605761313608341
0.20168960504347302
0.24401350578081474
0.28593508886973135
0.32478694600395036
0.35760137009316634
0.3795471549340541
0.38524800492438227
0.37065562196721086
0.3300023908605335
0.2610341029399427
0.16510919313859138
0.06635078647440219
0.3151066787097409
0.3393627792575596
-0.11646412749211454
-0.13091185667442318
-0.10570544244128373
-0.11366535237417834
-0.12385496956468692
0.7178328075969697
0.8448250621504801
0.046919300114866676
0.46988162820800705
0.40812474717935004
0.16694960755828794
0.0028975471754277477
-0.07395212630508352
-0.10007944145244368
-0.10519634428525132
-0.10385548595555814
-0.10230780758084576
-0.09843631749301161
-0.08460653283898388
-0.040685624540585975
0.3065098106910561
0.09488991775559691
0.051862508429750286
0.2173010543421832
0.4399174100869864
0.5280590909253084
-0.10168073739803829
-0.09715105264443116
-0.10234065547099556
-0.0837276210251062
-0.0965915990959183
-0.0732044439568789
-0.011171932718889555
-0.04893133638164746
0.1162785066333786
0.32074728071659875
0.4093844304730551
0.49085197054209173
0.1335210953494178
2.249060120061605
2.5274009286828445
0.3156010861576671
0.007244176733273969
-0.31878313544489234
0.4342894838820246
-0.10231092622108189
-0.09981692806405222
-0.10036161191588519
-0.09157790155477923
-0.08711259275202438
-0.06873062135340882
-0.04655457285694758
0.04633405892939819
0.21351020278404173
0.04064205045433873
-0.14344316639388696
-0.1168035578794651
-0.1234202943551204
-0.10619346693417278
0.9676272328609621
0.5747828401966147
-0.03102886952373582
0.23799457140299368
0.14049951445145473
0.4503874092275289
0.2219093738206305
0.06523625353621694
-0.0985790664449722
0.38752322420554003
-0.030069434434409882
-0.418883988107395
-0.15081365778139516
0.0325547039429909
0.2753749214095013
-0.10461616328969262
-0.10807518480278326
-0.10488149130466347
-0.11268902260608654
-0.10497213967851625
-0.11310599821853161
-0.08190653120131446
-0.07324263405403245
0.8361155033640435
0.6923071888276401
-0.20088340153446532
-0.0979626460499825
-0.14249513301138542
-0.20891313998483685
-0.11464430760700314
0.32160350023341083
0.39908267500534206
0.5432661528299618
0.5181516061358707
-0.3016400703848591
0.3762588670955671
0.4676878473958457
-0.10188407620135867
-0.10167070349685903
-0.1003842107955566
-0.09788440007488947
-0.10072930314615842
-0.09731626898273454
-0.08620622829729023
-0.09350530320948645
-0.09023276549148701
-0.07756313163717883
-0.07426981170367805
-0.05627397508185149
-0.02430827553347969
-0.056498592003421354
0.02302009819072852
0.08697762293822123
0.26890621586201996
0.1706292235308038
-0.6191909294917672
-0.5147470841169282
2.3294452251188082
1.9777754326561952
-0.01150973535537334
-0.23816940700229683
-0.12062838988453763
0.166906776573527
-1.021732204132295
0.26552628033287223
0.18017280045769327
0.0392061471765697
0.10148348527303591
0.34662514697213065
-0.008566668969857062
0.3920916325696199
0.218606441860827
0.36523518411925665
0.5338230402322804
0.7124939981819662
0.4234154728675451
0.4972714401490028
0.32227161888161615
0.21880357136845868
0.12752218731499024
0.05381235952117731
-0.0016606519172488764
-0.04142765044564446
-0.06554031119323041
-0.04122242055252795
-0.08056138243522422
-0.06760899316181883
-0.08431587013586833
-0.09007820841111908
-0.09403104486061223
-0.09919241075173173
-0.09582606824290539
-0.09921886260678164
-0.10139610467726631
-0.10184407580574625
-0.10108332295890862
0.013962250849882132
0.13979943912240156
0.3076025263571001
-0.2638912731573949
0.09725913339108264
0.6218180596335282
0.533779865187062
2.9039953778016665
2.155648207265857
0.3856460207454291
0.43159595953568525
0.47340738223764306
0.005161758004359373
0.3062370625431934
-0.024410384897526397
-0.28101069591499134
0.5921227818732411
0.5085895250222116
0.07552629316157582
-0.10322296887730872
-0.10472893921779176
-0.10082993819186141
-0.10385718316140431
-0.09299651549749004
-0.08998797085806376
-0.07147385155956888
-0.041828838957401936
0.3101615018917674
0.03413599037442251
1.2523254612617727
1.4785748227904993
0.26516210034469073
0.09036934035609487
0.18033095470584112
0.4136173790001803
-0.10537196689889093
-0.10433475528591955
-0.11016426596226238
-0.10444550632402765
-0.11200116001572906
-0.09772746947777125
-0.09915262606973718
-0.028490043251686616
0.14423106337712036
5.598342302591961
5.403331021629073
-0.012855761299593446
2.0975690307103685
0.48885287031241265
-0.10265928973091597
-0.10312383634480082
-0.10135194605797847
0.4019968996810388
-0.0998380553847827
-0.10270297647367736
-0.10100566888394914
-0.09587048404946402
-0.09124247914476073
-0.09487819303127737
-0.08672286982800191
-0.0794407160357407
-0.06713690872751472
-0.06531830849044547
-0.04228617850092509
0.010999425356939482
0.48867830817111163
0.060394918391831774
0.16287202191328215
0.2437090018556958
-0.06902117037216889
0.22262509022679805
0.06938332803352448
0.14914127614684522
-0.10985028243038078
-0.168299378466858
0.1522491060044027
0.3821709177778085
0.3751898652401913
-0.08900149604139665
0.03241088177723447
0.4400053669957669
0.5321896093696382
-0.13409298090490093
0.4668976837178712
0.011219789281140681
-0.510137360102074
0.3408516063694908
1.0203185730901567
0.927159851839093
0.37332386665027556
-0.02622250183074674
-0.17256911002194444
-0.05296720420535849
-0.16617295466226892
0.11856080318488611
1.248211826242107
0.5729328676154208
-1.2167721124874558

SCALARS Vx_analytic double
LOOKUP_TABLE default
4.100276591395571
-10.327730795436075
-14.268649563397696
0.13210637964658725
4.492515426468507
-2.683794553307782
-4.473557660634768
3.5422922230914713
1.0314781535196125
20.842645460337284
-8.188675201154101
-0.40947252232514986
-0.8985275653939453
-0.23421395942761805
-0.11369097867136595
-0.030612111190202868
-0.11116900932424224
-0.1864350413119295
-0.6569892800265935
-0.6110339256923515
-6.115745385050943
17.943670585109484
3.513264695897567
-1.0157705221644828
0.1475555398780567
0.03451969899702953
-0.32007619909002705
2.1113617298255227
1.0918367791702273
0.7143021740896053
0.5849518485730609
0.532723942492991
0.5070780229781188
0.4781901953453499
0.44153688695109505
0.39741178056709525
0.34773268551742126
0.29624639566452865
0.24497892024276266
0.19618313349197714
0.15080900292461222
0.10952048225670519
0.07261347350639887
0.04033345357913052
0.012569702993091333
-0.011155351329579694
-0.031081819755351243
-0.047524590627110515
-0.06081139786220602
-0.0715413250942335
-0.08001355261642085
-0.08658310712086903
-0.09151389784999099
-0.09520530149861346
-0.09785149337483363
-0.09967300325199183
-0.10081314043691017
-0.10146383312963528
-0.10170958672119829
-0.10162686877437897
-0.10124782765054768
-0.1005929420419448
-0.09964845504937833
-0.09834350190109792
-0.09661312131879325
-0.09434451871860432
-0.09142861870458373
-0.08763597043768757
-0.08280334278890654
-0.07669661379637617
-0.0691049613482522
-0.0595614485139086
-0.047822987540057
-0.03367246039641875
-0.0164853914523794
0.0038884095097775745
0.027721518384711853
0.05529747411442647
0.08676827989982389
0.12202034388196102
0.16057453055739004
0.20170954643103356
0.24406643450331383
0.2860015838006581
0.3248965446907701
0.3577128693745117
0.3797278569292094
0.38560071590681116
0.37102831606708997
0.3304074131023541
0.2613683054363757
0.1653518506058685
0.06630766750224568
0.30728902821796117
0.33717061452092667
-0.11573714656012829
-0.13079943948012537
-0.10570535512391332
-0.11372780229948656
-0.12456353024137952
0.7269997387825613
0.8347617254271167
0.0460072705065341
0.46799101154747413
0.41050734696060215
0.16692146289100296
0.003136668823908484
-0.0737837984527025
-0.1000156739190292
-0.10518127231498785
-0.1038529648682185
-0.10231052803076422
-0.09846832164148574
-0.08473012843988449
-0.04101671792383726
0.30863173663675386
0.10164156815107617
0.0515378711298595
0.21754434337178374
0.4422804079350206
0.5270414712543989
-0.10168036655234258
-0.0971593232265977
-0.1023372846441129
-0.0837700066866735
-0.0965755624829797
-0.07315791420021595
-0.011102327663133935
-0.0490750793294239
0.11625277765605256
0.32025822989122515
0.411595958653966
0.49215553312083404
0.13340677181581415
2.25624374662154
2.4658842148377005
0.3162010447825457
0.0070459417521384045
-0.31995283261098384
0.4335301034134836
-0.10230954769969873
-0.09981884026471768
-0.10035371804727132
-0.09159326976904172
-0.08708221543359336
-0.06878611534530418
-0.04648330343857466
0.04641118694696331
0.21338885459220758
0.04151052174497771
-0.14299730792783388
-0.11677288635863481
-0.12376119510985621
-0.10620445994408718
0.8926160215205319
0.5831067609988584
-0.03178275469461413
0.23793720672138985
0.1418866574597292
0.4592261061065529
0.22203848098081425
0.06507796699727575
-0.09857956794859327
0.3884750777202469
-0.030156942438430718
-0.4175139088450197
-0.1508969166741078
0.032833074894918324
0.2746372744133544
-0.10461649295414675
-0.10806434632248822
-0.10490610193156516
-0.11263371909575046
-0.1050894835364985
-0.11291175052286802
-0.08229300621660304
-0.07287632478518158
0.8282370826629045
0.6979119990900425
-0.20066822435963544
-0.09797116703089757
-0.14243482955312411
-0.20985491953469354
-0.11468425977838091
0.32291998604920785
0.4004661603599029
0.5455847679291022
0.5182087427677434
-0.3007930965710556
0.3759623336509358
0.4672919894446778
-0.10188333045338768
-0.10167020731102741
-0.10038502890796132
-0.09788823854675291
-0.10072764797373696
-0.09731253721590936
-0.08622901541256318
-0.09351735548254868
-0.09022641066298416
-0.07755275575138874
-0.07432039420404167
-0.056350997444097606
-0.024297351235116366
-0.05648791947703984
0.023012124120607415
0.0869455979782805
0.26873183033780007
0.17053225418634865
-0.6002055555256547
-0.5404004018209322
2.332489161030551
1.9952133237032728
-0.014257358255232014
-0.23526584133959225
-0.12196078555213036
0.16889580909633223
-1.0064285288164505
0.26576571577975516
0.18013718698293493
0.03905086594865041
0.10135564260066228
0.3473621975744978
-0.00868431944419396
0.3932823963532437
0.21971500681183107
0.3663367858564213
0.534750676680886
0.7167242441775034
0.4231117937816395
0.49705399018417323
0.3221079645654287
0.21875178329699063
0.12751921381715148
0.05384393201624763
-0.0016322894206608426
-0.04151191155064603
-0.06558852477115065
-0.0411931785999529
-0.0805891860533061
-0.06759113277234507
-0.08430334731521566
-0.09009150162918245
-0.09402489191072791
-0.09918920923254435
-0.09583184572164698
-0.09922064608284668
-0.10139490965510023
-0.10184361020514776
-0.1010834154980433
0.013839356920071152
0.13970756573243745
0.3079784830519023
-0.26982869697737183
0.09687450540464605
0.6181302600909432
0.5377275131524881
2.8036412452533046
1.9883210013783295
0.38716987918865314
0.42802012396646294
0.477521594283884
0.004780602870159797
0.3069585322807963
-0.02464960142736836
-0.28242466287452694
0.5891893005315009
0.5124021151991415
0.07569952319076306
-0.103222460356335
-0.104723127275654
-0.10084273201007102
-0.10382419512380234
-0.09306743180288246
-0.08988417115472526
-0.07166214313221154
-0.0416090827538214
0.3094423826452527
0.03395512403854082
1.2650001535191182
1.4602339633011823
0.2655939521564995
0.09019050064835066
0.1803862359396056
0.4148559104648605
-0.10536896235447382
-0.10433930005249745
-0.11013665881848957
-0.10448760294827768
-0.11189194719586185
-0.09790551172982544
-0.09883423321628419
-0.02803120503625426
0.14415472576217575
5.320999423523947
5.209113620693712
-0.012093327463532644
2.0940044611016253
0.48593036170383597
-0.10265782145730858
-0.10312143453262063
-0.10135356154035371
0.40109114383528305
-0.09984342184097961
-0.10269515363957475
-0.10099102635380837
-0.09589104254705999
-0.0912752761062486
-0.0948444375797706
-0.08667060521092007
-0.07952305266772519
-0.06724861035058378
-0.06522696170435686
-0.04217311602228652
0.01113015435965922
0.48724962629617047
0.060495842167759224
0.16281780513829913
0.24343739591994337
-0.06948058667620485
0.22266343541757483
0.0692583377022541