# vtk DataFile Version 1.0
2D Simulation C++
ASCII
DATASET UNSTRUCTURED_GRID
FIELD FieldData 1
NODES 1 2 int
348 601

POINTS 348 double
0.0 0.5 0.0
0.0 1.0 0.0
2.0 1.0 0.0
2.0 0.5 0.0
0.0 0.528801679611206 0.0
0.0 0.564507782459259 0.0
0.0 0.6110168099403381 0.0
0.0 0.6721802353858948 0.0
0.0 0.7528436183929443 0.0
0.0 0.8593378663063049 0.0
0.16666941344738007 1.0 0.0
0.3333356976509094 1.0 0.0
0.5000020265579224 1.0 0.0
0.6666678786277771 1.0 0.0
0.8333337306976318 1.0 0.0
1.0 1.0 0.0
1.1666662693023682 1.0 0.0
1.3333321809768677 1.0 0.0
1.4999979734420776 1.0 0.0
1.6666642427444458 1.0 0.0
1.8333306312561035 1.0 0.0
2.0 0.8593378663063049 0.0
2.0 0.7528436183929443 0.0
2.0 0.6721802353858948 0.0
2.0 0.6110168099403381 0.0
2.0 0.564507782459259 0.0
2.0 0.528801679611206 0.0
0.029850948601961136 0.5 0.0
0.05970168858766556 0.5 0.0
0.08955242484807968 0.5 0.0
0.1194031685590744 0.5 0.0
0.14925390481948853 0.5 0.0
0.17910465598106384 0.5 0.0
0.20895539224147797 0.5 0.0
0.2388061285018921 0.5 0.0
0.2686568796634674 0.5 0.0
0.29850760102272034 0.5 0.0
0.32835835218429565 0.5 0.0
0.35820910334587097 0.5 0.0
0.3880598247051239 0.5 0.0
0.4179105758666992 0.5 0.0
0.44776129722595215 0.5 0.0
0.47761204838752747 0.5 0.0
0.5074627995491028 0.5 0.0
0.5373135209083557 0.5 0.0
0.5671642422676086 0.5 0.0
0.5970150232315063 0.5 0.0
0.6268657445907593 0.5 0.0
0.6567164659500122 0.5 0.0
0.6865672469139099 0.5 0.0
0.7164179682731628 0.5 0.0
0.7462686896324158 0.5 0.0
0.7761194705963135 0.5 0.0
0.8059701919555664 0.5 0.0
0.8358209133148193 0.5 0.0
0.865671694278717 0.5 0.0
0.89552241563797 0.5 0.0
0.9253731369972229 0.5 0.0
0.9552239179611206 0.5 0.0
0.9850746393203735 0.5 0.0
1.0149253606796265 0.5 0.0
1.0447760820388794 0.5 0.0
1.0746268033981323 0.5 0.0
1.1044776439666748 0.5 0.0
1.1343283653259277 0.5 0.0
1.1641790866851807 0.5 0.0
1.1940298080444336 0.5 0.0
1.2238805294036865 0.5 0.0
1.2537312507629395 0.5 0.0
1.2835819721221924 0.5 0.0
1.3134328126907349 0.5 0.0
1.3432835340499878 0.5 0.0
1.3731342554092407 0.5 0.0
1.4029849767684937 0.5 0.0
1.4328356981277466 0.5 0.0
1.4626864194869995 0.5 0.0
1.492537260055542 0.5 0.0
1.522387981414795 0.5 0.0
1.5522387027740479 0.5 0.0
1.5820894241333008 0.5 0.0
1.6119401454925537 0.5 0.0
1.6417908668518066 0.5 0.0
1.6716417074203491 0.5 0.0
1.701492428779602 0.5 0.0
1.731343150138855 0.5 0.0
1.761193871498108 0.5 0.0
1.7910445928573608 0.5 0.0
1.8208953142166138 0.5 0.0
1.8507460355758667 0.5 0.0
1.8805968761444092 0.5 0.0
1.910447597503662 0.5 0.0
1.940298318862915 0.5 0.0
1.970149040222168 0.5 0.0
1.7358819246292114 0.7499510645866394 0.0
0.2656642198562622 0.7486277222633362 0.0
0.49981194734573364 0.737183690071106 0.0
0.74151611328125 0.7359843254089355 0.0
0.9774143695831299 0.7371892929077148 0.0
1.201690912246704 0.7367381453514099 0.0
1.447761058807373 0.7383390665054321 0.0
1.8591958284378052 0.6421071290969849 0.0
0.14080412685871124 0.6421071290969849 0.0
1.588537573814392 0.6783608794212341 0.0
0.2553686201572418 0.6221352219581604 0.0
1.7466964721679688 0.6278358101844788 0.0
0.38199201226234436 0.6273008584976196 0.0
0.5013589859008789 0.6272794008255005 0.0
0.6207823157310486 0.6272526383399963 0.0
0.7401852607727051 0.627252459526062 0.0
0.8595882654190063 0.6272523999214172 0.0
0.9701492786407471 0.6212864518165588 0.0
1.0807102918624878 0.6272523999214172 0.0
1.2001131772994995 0.6272523999214172 0.0
1.3195161819458008 0.6272523999214172 0.0
1.4488563537597656 0.6310953497886658 0.0
1.9247323274612427 0.5706554055213928 0.0
0.07526770234107971 0.5706554055213928 0.0
1.5377081632614136 0.5910930037498474 0.0
1.6566967964172363 0.5934624075889587 0.0
1.8074009418487549 0.5708622932434082 0.0
0.1940300166606903 0.5737577676773071 0.0
1.0286364555358887 0.5665481686592102 0.0
1.14803946018219 0.5665481686592102 0.0
0.9116620421409607 0.5665481686592102 0.0
1.2674424648284912 0.5665481686592102 0.0
0.7922590970993042 0.5665481686592102 0.0
0.6728560328483582 0.5665482878684998 0.0
0.5534531474113464 0.5665481686592102 0.0
1.3892061710357666 0.5727682709693909 0.0
0.43402159214019775 0.5665869116783142 0.0
0.3146642744541168 0.5667200088500977 0.0
1.8656742572784424 0.5607567429542542 0.0
0.1343258023262024 0.5607567429542542 0.0
1.5970147848129272 0.5642029047012329 0.0
1.8783670663833618 0.7786769866943359 0.0
0.12163297086954117 0.7786769866943359 0.0
1.7164177894592285 0.562579333782196 0.0
1.4776118993759155 0.5620538592338562 0.0
1.5857784748077393 0.867691159248352 0.0
0.25373148918151855 0.5588531494140625 0.0
0.9701492786407471 0.5582930445671082 0.0
1.0895521640777588 0.5582930445671082 0.0
0.8507462739944458 0.5582930445671082 0.0
1.20895516872406 0.5582930445671082 0.0
0.7313433289527893 0.5582930445671082 0.0
1.3283581733703613 0.5582930445671082 0.0
0.6119403839111328 0.5582930445671082 0.0
0.49253740906715393 0.5582930445671082 0.0
0.37313446402549744 0.5582956075668335 0.0
0.36864349246025085 0.7376502752304077 0.0
0.602456271648407 0.7355343103408813 0.0
0.8441241383552551 0.7366551756858826 0.0
1.3355978727340698 0.7366551160812378 0.0
1.0895521640777588 0.7378703355789185 0.0
0.07051979005336761 0.6486480832099915 0.0
1.9294801950454712 0.6486480832099915 0.0
1.5086064338684082 0.6743985414505005 0.0
1.6785967350006104 0.6649783849716187 0.0
1.9543375968933105 0.5452249050140381 0.0
0.04566239193081856 0.5452249050140381 0.0
1.6567095518112183 0.5496091842651367 0.0
1.53738272190094 0.5491842031478882 0.0
0.91306072473526 0.8965699672698975 0.0
1.7782752513885498 0.5446287989616394 0.0
1.4163299798965454 0.5447981357574463 0.0
0.4287482798099518 0.8945969939231873 0.0
1.2610714435577393 0.8950135707855225 0.0
0.4313095211982727 0.6832783222198486 0.0
0.31561949849128723 0.6858259439468384 0.0
1.029850721359253 0.6781684160232544 0.0
0.9082015752792358 0.6848641633987427 0.0
1.1492537260055542 0.6781684160232544 0.0
0.7886138558387756 0.678956151008606 0.0
1.2709345817565918 0.684736430644989 0.0
0.6685023903846741 0.6868807673454285 0.0
1.4007169008255005 0.6702371835708618 0.0
0.5483440160751343 0.6792802214622498 0.0
0.19808045029640198 0.6887137293815613 0.0
1.797759771347046 0.6853783130645752 0.0
0.6811949610710144 0.8757594227790833 0.0
1.0189321041107178 0.8474968671798706 0.0
0.7922950983047485 0.8446238040924072 0.0
1.3765455484390259 0.8590760827064514 0.0
1.1571698188781738 0.8478953838348389 0.0
1.8954496383666992 0.5359624624252319 0.0
1.8360060453414917 0.5359931588172913 0.0
0.10455036163330078 0.5359624624252319 0.0
0.16417928040027618 0.5353734493255615 0.0
0.5530290007591248 0.8422092199325562 0.0
0.2832632064819336 0.5367912650108337 0.0
0.22469767928123474 0.5394234657287598 0.0
0.9405550956726074 0.5357381105422974 0.0
0.9997434020042419 0.5357381105422974 0.0
1.0600273609161377 0.5365630984306335 0.0
1.1191463470458984 0.5357381105422974 0.0
0.8802711367607117 0.5365630984306335 0.0
0.8211521506309509 0.5357381105422974 0.0
1.2385493516921997 0.5357381105422974 0.0
1.179430365562439 0.5365630984306335 0.0
0.7608681321144104 0.5365630984306335 0.0
0.7017492055892944 0.5357381105422974 0.0
1.2988333702087402 0.5365630984306335 0.0
1.357560396194458 0.5390686392784119 0.0
0.5823462605476379 0.5357381105422974 0.0
0.6414651870727539 0.5365630984306335 0.0
0.5220622420310974 0.5365630984306335 0.0
0.4629422128200531 0.535739541053772 0.0
0.3435409665107727 0.5357455015182495 0.0
0.4026572108268738 0.5365669131278992 0.0
0.21006634831428528 0.8590372204780579 0.0
1.7943172454833984 0.8627070188522339 0.0
0.06134982034564018 0.7191494703292847 0.0
1.938650131225586 0.7191494703292847 0.0
1.634666085243225 0.7584379315376282 0.0
0.3355695903301239 0.8387951850891113 0.0
1.537941336631775 0.7633647918701172 0.0
1.9670078754425049 0.574067234992981 0.0
0.032992132008075714 0.574067234992981 0.0
1.6862140893936157 0.5314788222312927 0.0
1.6272135972976685 0.5317342281341553 0.0
1.5077245235443115 0.5309156775474548 0.0
1.5668202638626099 0.5316618084907532 0.0
1.7466963529586792 0.5298213958740234 0.0
1.4473658800125122 0.5297333002090454 0.0
1.804386019706726 0.5275400876998901 0.0
1.9283779859542847 0.5282225012779236 0.0
1.8656879663467407 0.5267112255096436 0.0
0.13432854413986206 0.5271331071853638 0.0
0.07162196189165115 0.5282225012779236 0.0
0.25373148918151855 0.527070939540863 0.0
0.19419340789318085 0.5297109484672546 0.0
0.31349387764930725 0.5272363424301147 0.0
0.37313446402549744 0.5270199179649353 0.0
0.4329495429992676 0.5274069309234619 0.0
0.49253740906715393 0.5270196795463562 0.0
0.5523557066917419 0.5274024605751038 0.0
1.3898069858551025 0.5277745127677917 0.0
1.3283581733703613 0.5270196795463562 0.0
0.6119403839111328 0.5270196795463562 0.0
1.2685397863388062 0.5274024605751038 0.0
0.6717586517333984 0.5274024605751038 0.0
0.7313433289527893 0.5270196795463562 0.0
1.20895516872406 0.5270196795463562 0.0
0.7911616563796997 0.5274024605751038 0.0
0.8507462739944458 0.5270196795463562 0.0
1.1491369009017944 0.5274024605751038 0.0
1.0895521640777588 0.5270196795463562 0.0
0.9105646014213562 0.5274024605751038 0.0
0.9701492786407471 0.5270196795463562 0.0
1.0297338962554932 0.5274024605751038 0.0
1.4776118993759155 0.5259945392608643 0.0
1.597015619277954 0.5255197882652283 0.0
1.7164177894592285 0.525999903678894 0.0
1.6834615468978882 0.8477573990821838 0.0
1.5822722911834717 0.6086509227752686 0.0
0.20459823310375214 0.6270732283592224 0.0
1.8037469387054443 0.6209055185317993 0.0
0.09990309923887253 0.8589919805526733 0.0
1.9000968933105469 0.8589919805526733 0.0
1.75603187084198 0.5789161324501038 0.0
0.10896337777376175 0.5982794761657715 0.0
1.8910366296768188 0.5982794761657715 0.0
1.4950518608093262 0.605266273021698 0.0
1.7049394845962524 0.6007562279701233 0.0
1.4387125968933105 0.5775743722915649 0.0
1.489302158355713 0.851039469242096 0.0
0.15732239186763763 0.5961292386054993 0.0
1.8436260223388672 0.5944437384605408 0.0
0.4399496018886566 0.6259797215461731 0.0
1.022565245628357 0.6257523894309998 0.0
[...]
POINT_DATA 348
SCALARS Psi double
LOOKUP_TABLE default
1.0878984745059155
1.0
1.0
1.0766684692566466
1.0877880062308716
1.0875451104726925
1.089146808444083
1.0938728055774982
1.1033510760285987
1.1418217491790537
1.0
1.0
1.0
1.0
1.0
1.0
1.0
1.0
1.0
1.0
1.0
1.1342685463948654
1.094275124240968
1.0844750354831854
1.0798819113724107
1.077714553798349
1.0768590541920307
1.0879812890902032
1.0867118737203634
1.084822304727298
1.0824207999612743
1.0794798105856351
1.0760237479536154
1.0721218737328315
1.0678672938765634
1.0633834607860362
1.0587584764216054
1.0540920620728162
1.0494630468909527
1.044956522337859
1.040624393395562
1.0364944248356214
1.03259961928809
1.0289672844690543
1.0256109400015723
1.022518384511846
1.01969449682632
1.0171381906735348
1.0148448620382082
1.0127905844151845
1.0109687791865185
1.0093691715629316
1.0079826246132642
1.0067887562643605
1.0057803759758284
1.0049494028548842
1.004289002796236
1.0037866646418065
1.0034382993190747
1.0032411995659933
1.003193444263997
1.0032914481784259
1.0035346311375253
1.0039285742433677
1.0044762170590067
1.0051807818982685
1.006046235746199
1.0070859529070189
1.008306272464418
1.0097144700031624
1.011316260526927
1.0131345528458302
1.015174058034367
1.017430970049361
1.0199346785756132
1.0226764930901495
1.025655503485555
1.0288722148436187
1.032324068251579
1.0359903891850204
1.0398395377927871
1.0438338440270778
1.047925536345241
1.0520543032562315
1.056143908295599
1.0601072579918018
1.0638381740187983
1.0672402127748237
1.0702047587100625
1.0726291927367797
1.0744756476863038
1.0757491274576916
1.0764613444357833
1.0467867111097497
1.0518854974995282
1.0201199545674653
1.0058086488405233
1.001673089073229
1.0036439487144646
1.013915967140929
1.0733682570847247
1.0821127466395313
1.031107448464218
1.0635343109924502
1.0566896057905466
1.0425530035947277
1.026824153505753
1.0156243623884142
1.0084497788026159
1.0043633587493608
1.0028457867716791
1.0030421303403574
1.005401094404
1.0102988518924467
1.0190457071421462
1.076281597020842
1.0856765450456374
1.0292513434324908
1.044529511697503
1.0659083918864385
1.0740341916067124
1.0030690600136956
1.00458115662548
1.0038189305409793
1.008611711426916
1.007031564622471
1.0132384594371568
1.0232041804416896
1.0157540903958493
1.0374860201990437
1.055478417970922
1.071980830286013
1.0811616401264972
1.03720696160751
1.0782438794756362
1.0863580194891436
1.0536728172764982
1.0235734735172661
1.0130768691662635
1.065254610094945
1.0031970524730107
1.003579888193563
1.005165743127907
1.0063427129972857
1.0098477968555448
1.0118732770505452
1.017911442659961
1.0300947466121206
1.0464794892479856
1.035694769451556
1.0123546184430492
1.0031387426964233
1.007992742049628
1.001937517782547
1.090263855737426
1.0807843178728167
1.0226367967517502
1.0445797931518381
1.0766486529924748
1.0869297742305102
1.0454993564028208
1.030180404416085
1.0004324779457139
1.0622233994946018
1.018259312227959
1.010523864373766
1.0014801910947342
1.032130051841006
1.049402649176792
1.0022866924228695
1.0028325832447509
1.0035487593324006
1.0056184817133786
1.0068375194662311
1.0105844966847408
1.0140169693415877
1.019584624620579
1.0716959174673084
1.0635402041394366
1.003369088874758
1.000551528926601
1.001909153008118
1.004473798831791
1.0011770794818944
1.0738826786535005
1.0689326686853955
1.0837058532098631
1.0778577788647876
1.0080518454116583
1.060955664801596
1.0698224662033131
1.003544909552875
1.0031568981133798
1.0033514355710702
1.0041283491621857
1.004548002359484
1.0061844091927696
1.0075849559331436
1.0055370177879097
1.0085721333130844
1.0117220718823763
1.0104033157148806
1.0139270178227933
1.0208731770420247
1.0158334216377207
1.0270743050415625
1.034252173226316
1.0515054291938803
1.042562082357397
1.0395567065611522
1.0362112339411231
1.0980435920039109
1.0884747659977345
1.0302226293673091
1.0266177484462173
1.019376448788734
1.0777981806244439
1.0869960836179235
1.0498144934644766
1.0417081050560868
1.027115335910245
1.0339262736258155
1.0581499446394147
1.0211277923836968
1.06542418181711
1.0754785720491242
1.0715896555247917
1.0810291667557008
1.0859076136182253
1.0655604214028789
1.0740717861640978
1.0562842958538758
1.0470323712778806
1.038362659914784
1.030604475212455
1.023898083915259
1.0163204858116237
1.0121235364305834
1.0182792587005478
1.0089275203721773
1.0137006778721829
1.01007757812678
1.00650039028876
1.0073102832350644
1.005304971057273
1.0047733073656617
1.0036843055083036
1.0039874088494376
1.003294880301141
1.0031996899315188
1.0240373575829014
1.0377827111537774
1.0540276655971716
1.02473212792546
1.0340237284795029
1.0720977954053752
1.0654174776673169
1.0766798885028077
1.0694555700113684
1.0590427058657008
1.084187003858443
1.0751055971259504
1.024234064388061
1.0512398238739746
1.019647045420231
1.0091319940554684
1.0790605294258175
1.0704032401573682
1.0344440063442935
1.002701771723287
1.0033116066653596
1.0039833364085742
1.0061442472404083
1.007590352498457
1.011737989708241
1.0131967721968638
1.0208948219763392
1.0530712580073485
1.0269044500744042
1.0769456125866221
1.085352198225339
1.0490327200726137
1.0329780828114237
1.041576912820203
1.053151067711625
1.0023830257252753
1.0026693188057267
1.0039418911336464
1.0050219755394465
1.0079147626328089
1.0097441058479257
1.0144741786151448
1.0255108295520208
1.041137867962152
1.1079720339972976
1.0992860060360794
1.076666239548351
1.087955370491589
1.0607630654084095
1.0029734870243014
1.0032515757368836
1.0031706622359355
1.061220931349358
1.0037527086784603
1.0043770222429034
1.0056003462581138
1.00536427988704
1.0069008653554923
1.0083446693184084
1.0107080771129566
1.0101583380857002
1.0127990591731155
1.0154620518406445
1.0192794234283054
1.0265465388355395
1.0680748969585923
1.0320716499156886
1.0420100803880286
1.0488854790191844
1.0174362726640083
1.0457873258268346
1.0304818268431872
1.0386471657761427
1.0014570165754393
1.0217583110289143
1.0389659103822095
1.0837777927920271
1.0744046642619032
1.0002569121773366
1.028206227624293
1.0692428658326447
1.0781093475385546
1.00394019568537
1.0875215093190727
1.0771331067684888
1.087213640991445
1.0783251134840657
1.0690638753648463
1.0624278431759828
1.062006016573454
1.018597516990547
1.0010538007721417
1.0163453081958274
1.0065916817527119
1.0761908357874175
1.0872104888628644
1.0528187222834886
1.0469710938931729

SCALARS Omega double
LOOKUP_TABLE default
4.100276591396424
-10.327730795436159
-14.2686495633978
0.13217857057024646
4.492515426468234
-2.683794553307997
-4.473557660634905
3.542292223091509
1.0314781535197224
20.8426454603373
-8.188675201154133
-0.40947252232516346
-0.8985275653939564
-0.23421395942761958
-0.11369097867139834
-0.030612111190250344
-0.11116900932422616
-0.1864350413119044
-0.6569892800265824
-0.6110339256923512
-6.115745385050976
17.94367058510949
3.51246367823935
-1.037908127012069
0.14534828365054528
0.033512257696092375
-0.32203140248004425
2.1113617298256524
1.0918367791702195
0.7143021740895799
0.5849518485730365
0.5327239424929712
0.5070780229781041
0.47819019534533935
0.4415368869510874
0.39741178056708976
0.34773268551741704
0.2962463956645253
0.24497892024275972
0.1961831334919745
0.15080900292460958
0.10952048225670252
0.07261347350639615
0.04033345357912776
0.01256970299308853
-0.01115535132958251
-0.031081819755354047
-0.04752459062711326
-0.06081139786220867
-0.07154132509423602
-0.08001355261642328
-0.08658310712087133
-0.09151389784999316
-0.09520530149861547
-0.09785149337483554
-0.0996730032519936
-0.10081314043691184
-0.1014638331296368
-0.10170958672119966
-0.10162686877438021
-0.10124796093657593
-0.10059290948863071
-0.09964829274356433
-0.09834303166584507
-0.09661228012447506
-0.09434272394968254
-0.09142625853744916
-0.08763222668431063
-0.0827984310741302
-0.07668844523080197
-0.06909527064199901
-0.059547317291031986
-0.04780290324996558
-0.03366497388546138
-0.01647275171220663
0.003910499114037406
0.02774308170472963
0.05530912053745685
0.08677693338047338
0.1220369049220465
0.16057613136084073
0.20168960504348107
0.24401350578082442
0.2859350888697429
0.3247869460039641
0.3576013700931826
0.37954715493407326
0.3852480049244042
0.3706556219672343
0.330002390860554
0.2610341029399496
0.16510919313855155
0.06635078647419715
0.31510667870975223
0.3393627792575548
-0.11646412749212395
-0.1309118566744295
-0.10570544244128473
-0.113665352374174
-0.12385496956467984
0.7178328075969956
0.8448250621504712
0.04691930011487318
0.4698816282080026
0.40812474717936337
0.16694960755828417
0.0028975471754232574
-0.07395212630508789
-0.1000794414524472
-0.10519634428525375
-0.10385548595555955
-0.10230780758084619
-0.09843631749301121
-0.08460653283898259
-0.040685624540583144
0.30650981069111327
0.09488991775554347
0.0518625084297544
0.21730105434219152
0.43991741008700774
0.5280590909252972
-0.10168073739803932
-0.09715105264443162
-0.10234065547099727
-0.08372762102510602
-0.09659159909592067
-0.0732044439568819
-0.011171932718892837
-0.048931336381646214
0.11627850663337559
0.32074728071659525
0.40938443047308554
0.4908519705420678
0.1335210953494237
2.2490601200616194
2.5274009286828547
0.3156010861576793
0.00724417673327653
-0.31878313544487086
0.43428948388201866
-0.10231092622108325
-0.09981692806405294
-0.10036161191588719
-0.09157790155477943
-0.08711259275202703
-0.06873062135340824
-0.046554572856950714
0.04633405892939507
0.2135102027840388
0.04064205045433101
-0.14344316639389573
-0.1168035578794693
-0.12342029435511435
-0.10619346693417078
0.9676272328609482
0.5747828401966477
-0.031028869523731
0.2379945714030025
0.14049951445149045
0.4503874092274611
0.22190937382063913
0.0652362535362209
-0.09857906644498289
0.38752322420555785
-0.03006943443440843
-0.4188839881074143
-0.15081365778137207
0.032554703942984986
0.27537492140949693
-0.10461616328969314
-0.10807518480278556
-0.10488149130466244
-0.11268902260609054
-0.10497213967851386
-0.11310599821853734
-0.08190653120131135
-0.07324263405403876
0.8361155033640422
0.692307188827655
-0.20088340153447853
-0.09796264604997981
-0.14249513301139427
-0.20891313998481506
-0.11464430760699126
0.32160350023343515
0.39908267500536604
0.543266152829932
0.5181516061358536
-0.3016400703848772
0.37625886709556244
0.46768784739583713
-0.10188407620136014
-0.1016707034968602
-0.1003842107955575
-0.09788440007489012
-0.10072930314616019
-0.09731626898273656
-0.08620622829729038
-0.09350530320948691
-0.09023276549148936
-0.07756313163718141
-0.07426981170367782
-0.056273975081850766
-0.024308275533482623
-0.056498592003424185
0.0230200981907256
0.08697762293821842
0.26890621586201685
0.17062922353080107
-0.6191909294917817
-0.514747084116914
2.329445225118841
1.9777754326562156
-0.011509735355362883
-0.23816940700231112
-0.12062838988452758
0.16690677657368597
-1.0217322041324093
0.2655262803328827
0.18017280045770054
0.03920614717657283
0.10148348527304074
0.34662514697214564
-0.008566668969855184
0.3920916325696405
0.21860644186083217
0.3652351841192815
0.5338230402322575
0.7124939981819338
0.4234154728675387
0.4972714401489905
0.32227161888161243
0.21880357136845588
0.12752218731498755
0.053812359521174476
-0.0016606519172517715
-0.04142765044564342
-0.06554031119322996
-0.041222420552530815
-0.08056138243522419
-0.06760899316182149
-0.08431587013587079
-0.09007820841111941
-0.09403104486061435
-0.0991924107517336
-0.09582606824290597
-0.09921886260678241
-0.10139610467726791
-0.10184407580574759
-0.10108332295890968
0.013962250849884589
0.13979943912240753
0.3076025263571127
-0.26389127315737815
0.09725913339108809
0.621818059633522
0.5337798651870814
2.9039953778016594
2.155648207265865
0.38564602074544435
0.43159595953565616
0.47340738223768436
0.005161758004362604
0.30623706254320426
-0.024410384897524433
-0.28101069591497263
0.5921227818732261
0.5085895250222386
0.07552629316157168
-0.10322296887730965
-0.10472893921779364
-0.10082993819186144
-0.10385718316140728
-0.09299651549748926
-0.08998797085806771
-0.07147385155956726
-0.04182883895740642
0.3101615018917638
0.03413599037442584
1.2523254612617918
1.4785748227905056
0.2651621003447007
0.09036934035609968
0.18033095470584842
0.413617379000192
-0.10537196689889232
-0.10433475528591918
-0.1101642659622655
-0.10444550632402598
-0.11200116001573375
-0.09772746947776846
-0.0991526260697432
-0.028490043251692767
0.1442310633771154
5.598342302591996
5.403331021629101
-0.012855761299736881
2.0975690307103454
0.4888528703124093
-0.10265928973091723
-0.10312383634480236
-0.10135194605797923
0.40199689968103436
-0.09983805538478323
-0.1027029764736794
-0.10100566888395146
-0.09587048404946417
-0.09124247914476064
-0.09487819303128019
-0.08672286982800499
-0.07944071603574009
-0.06713690872751374
-0.06531830849044894
-0.04228617850092866
0.010999425356935865
0.4886783081711051
0.06039491839182833
0.16287202191327899
0.24370900185569266
-0.06902117037216465
0.22262509022680688
0.0693833280335284
0.14914127614685216
-0.10985028243038447
-0.1682993784668704
0.1522491060044093
0.3821709177777739
0.3751898652402304
-0.08900149604139286
0.032410881777239164
0.44000536699579246
0.5321896093696215
-0.13409298090489077
0.46689768371773765
0.011219789281217777
-0.5101373601021404
0.3408516063695754
1.0203185730901572
0.9271598518391059
0.3733238666502932
-0.026222501830745332
-0.17256911002195968
-0.05296720420535649
-0.16617295466227874
0.11856080318482759
1.2482118262420976
0.5729328676153874
-1.2167721124874782

SCALARS Vx_analytic double
LOOKUP_TABLE default
4.100276591396424
-10.327730795436159
-14.2686495633978
0.13210637964583694
4.492515426468234
-2.683794553307997
-4.473557660634905
3.542292223091509
1.0314781535197224
20.8426454603373
-8.188675201154133
-0.40947252232516346
-0.8985275653939564
-0.23421395942761958
-0.11369097867139834
-0.030612111190250344
-0.11116900932422616
-0.1864350413119044
-0.6569892800265822
-0.6110339256923512
-6.115745385050976
17.94367058510949
3.5132646958976523
-1.0157705221645623
0.14755553987818412
0.03451969899754432
-0.3200761990903395
2.1113617298256524
1.0918367791702195
0.7143021740895799
0.5849518485730365
0.5327239424929712
0.5070780229781041
0.47819019534533935
0.4415368869510874
0.39741178056708976
0.34773268551741704
0.2962463956645253
0.24497892024275972
0.1961831334919745
0.15080900292460958
0.10952048225670252
0.07261347350639615
0.04033345357912776
0.01256970299308853
-0.01115535132958251
-0.031081819755354047
-0.04752459062711326
-0.06081139786220867
-0.07154132509423602
-0.08001355261642328
-0.08658310712087133
-0.09151389784999316
-0.09520530149861547
-0.09785149337483554
-0.0996730032519936
-0.10081314043691184
-0.1014638331296368
-0.10170958672119966
-0.10162686877438021
-0.10124782765054899
-0.10059294204194574
-0.09964845504937919
-0.09834350190109892
-0.09661312131879383
-0.09434451871860508
-0.09142861870458419
-0.08763597043768798
-0.08280334278890661
-0.07669661379637575
-0.06910496134825188
-0.05956144851390807
-0.04782298754005646
-0.03367246039641764
-0.01648539145237799
0.00388840950977971
0.027721518384714823
0.055297474114429965
0.08676827989982791
0.12202034388196638
0.16057453055739668
0.20170954643104158
0.2440664345033235
0.28600158380066815
0.324896544690784
0.3577128693745259
0.37972785692922834
0.38560071590683626
0.3710283160671134
0.33040741310237437
0.26136830543638273
0.16535185060582933
0.06630766750204135
0.3072890282179726
0.337170614520922
-0.1157371465601378
-0.13079943948013167
-0.10570535512391434
-0.1137278022994822
-0.12456353024137239
0.7269997387825872
0.8347617254271062
0.046007270506540666
0.46799101154746975
0.4105073469606154
0.1669214628909994
0.0031366688239040192
-0.07378379845270687
-0.10001567391903264
-0.1051812723149903
-0.1038529648682199
-0.10231052803076465
-0.09846832164148538
-0.0847301284398834
-0.041016717923834406
0.30863173663681137
0.10164156815102643
0.05153787112986364
0.21754434337179207
0.44228040793504214
0.5270414712543878
-0.10168036655234361
-0.09715932322659837
-0.10233728464411462
-0.08377000668667328
-0.09657556248298209
-0.0731579142002189
-0.01110232766313713
-0.04907507932942264
0.11625277765604967
0.3202582298912219
0.41159595865399645
0.4921555331208105
0.13340677181582003
2.2562437466215544
2.4658842148377103
0.3162010447825568
0.007045941752140926
-0.3199528326109625
0.4335301034134779
-0.10230954769970006
-0.09981884026471839
-0.10035371804727332
-0.09159326976904192
-0.08708221543359601
-0.0687861153453036
-0.04648330343857773
0.046411186946960274
0.2133888545922046
0.041510521744970136
-0.14299730792784263
-0.11677288635863901
-0.1237611951098501
-0.1062044599440852
0.8926160215205131
0.5831067609988912
-0.03178275469460925
0.2379372067213987
0.141886657459767
0.45922610610648634
0.222038480980824
0.0650779669972797
-0.09857956794860395
0.3884750777202641
-0.030156942438429257
-0.4175139088450389
-0.15089691667408497
0.03283307489491241
0.27463727441335023
-0.10461649295414728
-0.10806434632249051
-0.10490610193156412
-0.11263371909575444
-0.1050894835364961
-0.11291175052287374
-0.08229300621659989
-0.07287632478518785
0.8282370826629034
0.6979119990900573
-0.20066822435964862
-0.09797116703089481
-0.14243482955313297
-0.20985491953467175
-0.11468425977836902
0.32291998604923217
0.4004661603599272
0.5455847679290733
0.5182087427677262
-0.3007930965710737
0.3759623336509312
0.46729198944466926
-0.10188333045338915
-0.10167020731102859
-0.10038502890796218
-0.09788823854675356
-0.1007276479737387
-0.09731253721591136
-0.08622901541256334
-0.09351735548254915
-0.09022641066298649
-0.0775527557513913
-0.07432039420404188
-0.05635099744409689
-0.02429735123511923
-0.05648791947704263
0.023012124120604594
0.08694559797827776
0.2687318303377971
0.17053225418634613
-0.600205555525669
-0.5404004018209243
2.3324891610305856
1.995213323703293
-0.014257358255220976
-0.23526584133960646
-0.1219607855521202
0.16889580909649016
-1.006428528816565
0.26576571577976565
0.1801371869829415
0.03905086594865353
0.1013556426006671
0.34736219757451275
-0.008684319444192078
0.3932823963532645
0.21971500681183687
0.36633678585644647
0.5347506766808636
0.7167242441774727
0.4231117937816332
0.49705399018416097
0.32210796456542523
0.21875178329698827
0.1275192138171487
0.05384393201624478
-0.0016322894206637342
-0.041511911550645
-0.0655885247711502
-0.041193178599955756
-0.08058918605330607
-0.06759113277234768
-0.08430334731521809
-0.0900915016291828
-0.09402489191073005
-0.09918920923254625
-0.09583184572164753
-0.09922064608284746
-0.10139490965510181
-0.1018436102051491
-0.10108341549804434
0.013839356920073372
0.13970756573244297
0.30797848305191483
-0.2698286969773552
0.09687450540465153
0.6181302600909371
0.5377275131525058
2.8036412452532993
1.9883210013783978
0.3871698791886701
0.4280201239664339
0.4775215942839235
0.004780602870163135
0.30695853228080716
-0.024649601427366528
-0.2824246628745083
0.5891893005314852
0.5124021151991716
0.07569952319075895
-0.10322246035633593
-0.10472312727565587
-0.10084273201007105
-0.1038241951238053
-0.09306743180288167
-0.08988417115472916
-0.07166214313220991
-0.04160908275382586
0.3094423826452494
0.033955124038544164
1.2650001535191384
1.4602339633011883
0.2655939521565095
0.09019050064835549
0.1803862359396129
0.4148559104648724
-0.10536896235447536
-0.10433930005249707
-0.11013665881849272
-0.104487602948276
-0.11189194719586652
-0.09790551172982266
-0.09883423321629027
-0.028031205036260467
0.14415472576217095
5.320999423523979
5.209113620693738
-0.012093327463674829
2.0940044611016
0.4859303617038329
-0.10265782145730987
-0.10312143453262215
-0.10135356154035449
0.4010911438352787
-0.09984342184098015
-0.1026951536395768
-0.10099102635381069
-0.09589104254706035
-0.09127527610624853
-0.09484443757977341
-0.08667060521092312
-0.07952305266772458
-0.06724861035058279
-0.0652269617043603
-0.04217311602229007
0.011130154359655762
0.48724962629616403
0.06049584216775587
0.1628178051382961
0.24343739591994032
-0.06948058667620034
0.22266343541758418
0.06925833770225802
0.14915758458659795