# vtk DataFile Version 1.0
2D Simulation C++
ASCII
DATASET UNSTRUCTURED_GRID
FIELD FieldData 1
NODES 1 2 int
348 601

POINTS 348 double
0.0 0.5 0.0
0.0 1.0 0.0
2.0 1.0 0.0
2.0 0.5 0.0
0.0 0.528801679611206 0.0
0.0 0.564507782459259 0.0
0.0 0.6110168099403381 0.0
0.0 0.6721802353858948 0.0
0.0 0.7528436183929443 0.0
0.0 0.8593378663063049 0.0
0.16666941344738007 1.0 0.0
0.3333356976509094 1.0 0.0
0.5000020265579224 1.0 0.0
0.6666678786277771 1.0 0.0
0.8333337306976318 1.0 0.0
1.0 1.0 0.0
1.1666662693023682 1.0 0.0
1.3333321809768677 1.0 0.0
1.4999979734420776 1.0 0.0
1.6666642427444458 1.0 0.0
1.8333306312561035 1.0 0.0
2.0 0.8593378663063049 0.0
2.0 0.7528436183929443 0.0
2.0 0.6721802353858948 0.0
2.0 0.6110168099403381 0.0
2.0 0.564507782459259 0.0
2.0 0.528801679611206 0.0
0.029850948601961136 0.5 0.0
0.05970168858766556 0.5 0.0
0.08955242484807968 0.5 0.0
0.1194031685590744 0.5 0.0
0.14925390481948853 0.5 0.0
0.17910465598106384 0.5 0.0
0.20895539224147797 0.5 0.0
0.2388061285018921 0.5 0.0
0.2686568796634674 0.5 0.0
0.29850760102272034 0.5 0.0
0.32835835218429565 0.5 0.0
0.35820910334587097 0.5 0.0
0.3880598247051239 0.5 0.0
0.4179105758666992 0.5 0.0
0.44776129722595215 0.5 0.0
0.47761204838752747 0.5 0.0
0.5074627995491028 0.5 0.0
0.5373135209083557 0.5 0.0
0.5671642422676086 0.5 0.0
0.5970150232315063 0.5 0.0
0.6268657445907593 0.5 0.0
0.6567164659500122 0.5 0.0
0.6865672469139099 0.5 0.0
0.7164179682731628 0.5 0.0
0.7462686896324158 0.5 0.0
0.7761194705963135 0.5 0.0
0.8059701919555664 0.5 0.0
0.8358209133148193 0.5 0.0
0.865671694278717 0.5 0.0
0.89552241563797 0.5 0.0
0.9253731369972229 0.5 0.0
0.9552239179611206 0.5 0.0
0.9850746393203735 0.5 0.0
1.0149253606796265 0.5 0.0
1.0447760820388794 0.5 0.0
1.0746268033981323 0.5 0.0
1.1044776439666748 0.5 0.0
1.1343283653259277 0.5 0.0
1.1641790866851807 0.5 0.0
1.1940298080444336 0.5 0.0
1.2238805294036865 0.5 0.0
1.2537312507629395 0.5 0.0
1.2835819721221924 0.5 0.0
1.3134328126907349 0.5 0.0
1.3432835340499878 0.5 0.0
1.3731342554092407 0.5 0.0
1.4029849767684937 0.5 0.0
1.4328356981277466 0.5 0.0
1.4626864194869995 0.5 0.0
1.492537260055542 0.5 0.0
1.522387981414795 0.5 0.0
1.5522387027740479 0.5 0.0
1.5820894241333008 0.5 0.0
1.6119401454925537 0.5 0.0
1.6417908668518066 0.5 0.0
1.6716417074203491 0.5 0.0
1.701492428779602 0.5 0.0
1.731343150138855 0.5 0.0
1.761193871498108 0.5 0.0
1.7910445928573608 0.5 0.0
1.8208953142166138 0.5 0.0
1.8507460355758667 0.5 0.0
1.8805968761444092 0.5 0.0
1.910447597503662 0.5 0.0
1.940298318862915 0.5 0.0
1.970149040222168 0.5 0.0
1.7358819246292114 0.7499510645866394 0.0
0.2656642198562622 0.7486277222633362 0.0
0.49981194734573364 0.737183690071106 0.0
0.74151611328125 0.7359843254089355 0.0
0.9774143695831299 0.7371892929077148 0.0
1.201690912246704 0.7367381453514099 0.0
1.447761058807373 0.7383390665054321 0.0
1.8591958284378052 0.6421071290969849 0.0
0.14080412685871124 0.6421071290969849 0.0
1.588537573814392 0.6783608794212341 0.0
0.2553686201572418 0.6221352219581604 0.0
1.7466964721679688 0.6278358101844788 0.0
0.38199201226234436 0.6273008584976196 0.0
0.5013589859008789 0.6272794008255005 0.0
0.6207823157310486 0.6272526383399963 0.0
0.7401852607727051 0.627252459526062 0.0
0.8595882654190063 0.6272523999214172 0.0
0.9701492786407471 0.6212864518165588 0.0
1.0807102918624878 0.6272523999214172 0.0
1.2001131772994995 0.6272523999214172 0.0
1.3195161819458008 0.6272523999214172 0.0
1.4488563537597656 0.6310953497886658 0.0
1.9247323274612427 0.5706554055213928 0.0
0.07526770234107971 0.5706554055213928 0.0
1.5377081632614136 0.5910930037498474 0.0
1.6566967964172363 0.5934624075889587 0.0
1.8074009418487549 0.5708622932434082 0.0
0.1940300166606903 0.5737577676773071 0.0
1.0286364555358887 0.5665481686592102 0.0
1.14803946018219 0.5665481686592102 0.0
0.9116620421409607 0.5665481686592102 0.0
1.2674424648284912 0.5665481686592102 0.0
0.7922590970993042 0.5665481686592102 0.0
0.6728560328483582 0.5665482878684998 0.0
0.5534531474113464 0.5665481686592102 0.0
1.3892061710357666 0.5727682709693909 0.0
0.43402159214019775 0.5665869116783142 0.0
0.3146642744541168 0.5667200088500977 0.0
1.8656742572784424 0.5607567429542542 0.0
0.1343258023262024 0.5607567429542542 0.0
1.5970147848129272 0.5642029047012329 0.0
1.8783670663833618 0.7786769866943359 0.0
0.12163297086954117 0.7786769866943359 0.0
1.7164177894592285 0.562579333782196 0.0
1.4776118993759155 0.5620538592338562 0.0
1.5857784748077393 0.867691159248352 0.0
0.25373148918151855 0.5588531494140625 0.0
0.9701492786407471 0.5582930445671082 0.0
1.0895521640777588 0.5582930445671082 0.0
0.8507462739944458 0.5582930445671082 0.0
1.20895516872406 0.5582930445671082 0.0
0.7313433289527893 0.5582930445671082 0.0
1.3283581733703613 0.5582930445671082 0.0
0.6119403839111328 0.5582930445671082 0.0
0.49253740906715393 0.5582930445671082 0.0
0.37313446402549744 0.5582956075668335 0.0
0.36864349246025085 0.7376502752304077 0.0
0.602456271648407 0.7355343103408813 0.0
0.8441241383552551 0.7366551756858826 0.0
1.3355978727340698 0.7366551160812378 0.0
1.0895521640777588 0.7378703355789185 0.0
0.07051979005336761 0.6486480832099915 0.0
1.9294801950454712 0.6486480832099915 0.0
1.5086064338684082 0.6743985414505005 0.0
1.6785967350006104 0.6649783849716187 0.0
1.9543375968933105 0.5452249050140381 0.0
0.04566239193081856 0.5452249050140381 0.0
1.6567095518112183 0.5496091842651367 0.0
1.53738272190094 0.5491842031478882 0.0
0.91306072473526 0.8965699672698975 0.0
1.7782752513885498 0.5446287989616394 0.0
1.4163299798965454 0.5447981357574463 0.0
0.4287482798099518 0.8945969939231873 0.0
1.2610714435577393 0.8950135707855225 0.0
0.4313095211982727 0.6832783222198486 0.0
0.31561949849128723 0.6858259439468384 0.0
1.029850721359253 0.6781684160232544 0.0
0.9082015752792358 0.6848641633987427 0.0
1.1492537260055542 0.6781684160232544 0.0
0.7886138558387756 0.678956151008606 0.0
1.2709345817565918 0.684736430644989 0.0
0.6685023903846741 0.6868807673454285 0.0
1.4007169008255005 0.6702371835708618 0.0
0.5483440160751343 0.6792802214622498 0.0
0.19808045029640198 0.6887137293815613 0.0
1.797759771347046 0.6853783130645752 0.0
0.6811949610710144 0.8757594227790833 0.0
1.0189321041107178 0.8474968671798706 0.0
0.7922950983047485 0.8446238040924072 0.0
1.3765455484390259 0.8590760827064514 0.0
1.1571698188781738 0.8478953838348389 0.0
1.8954496383666992 0.5359624624252319 0.0
1.8360060453414917 0.5359931588172913 0.0
0.10455036163330078 0.5359624624252319 0.0
0.16417928040027618 0.5353734493255615 0.0
0.5530290007591248 0.8422092199325562 0.0
0.2832632064819336 0.5367912650108337 0.0
0.22469767928123474 0.5394234657287598 0.0
0.9405550956726074 0.5357381105422974 0.0
0.9997434020042419 0.5357381105422974 0.0
1.0600273609161377 0.5365630984306335 0.0
1.1191463470458984 0.5357381105422974 0.0
0.8802711367607117 0.5365630984306335 0.0
0.8211521506309509 0.5357381105422974 0.0
1.2385493516921997 0.5357381105422974 0.0
1.179430365562439 0.5365630984306335 0.0
0.7608681321144104 0.5365630984306335 0.0
0.7017492055892944 0.5357381105422974 0.0
1.2988333702087402 0.5365630984306335 0.0
1.357560396194458 0.5390686392784119 0.0
0.5823462605476379 0.5357381105422974 0.0
0.6414651870727539 0.5365630984306335 0.0
0.5220622420310974 0.5365630984306335 0.0
0.4629422128200531 0.535739541053772 0.0
0.3435409665107727 0.5357455015182495 0.0
0.4026572108268738 0.5365669131278992 0.0
0.21006634831428528 0.8590372204780579 0.0
1.7943172454833984 0.8627070188522339 0.0
0.06134982034564018 0.7191494703292847 0.0
1.938650131225586 0.7191494703292847 0.0
1.634666085243225 0.7584379315376282 0.0
0.3355695903301239 0.8387951850891113 0.0
1.537941336631775 0.7633647918701172 0.0
1.9670078754425049 0.574067234992981 0.0
0.032992132008075714 0.574067234992981 0.0
1.6862140893936157 0.5314788222312927 0.0
1.6272135972976685 0.5317342281341553 0.0
1.5077245235443115 0.5309156775474548 0.0
1.5668202638626099 0.5316618084907532 0.0
1.7466963529586792 0.5298213958740234 0.0
1.4473658800125122 0.5297333002090454 0.0
1.804386019706726 0.5275400876998901 0.0
1.9283779859542847 0.5282225012779236 0.0
1.8656879663467407 0.5267112255096436 0.0
0.13432854413986206 0.5271331071853638 0.0
0.07162196189165115 0.5282225012779236 0.0
0.25373148918151855 0.527070939540863 0.0
0.19419340789318085 0.5297109484672546 0.0
0.31349387764930725 0.5272363424301147 0.0
0.37313446402549744 0.5270199179649353 0.0
0.4329495429992676 0.5274069309234619 0.0
0.49253740906715393 0.5270196795463562 0.0
0.5523557066917419 0.5274024605751038 0.0
1.3898069858551025 0.5277745127677917 0.0
1.3283581733703613 0.5270196795463562 0.0
0.6119403839111328 0.5270196795463562 0.0
1.2685397863388062 0.5274024605751038 0.0
0.6717586517333984 0.5274024605751038 0.0
0.7313433289527893 0.5270196795463562 0.0
1.20895516872406 0.5270196795463562 0.0
0.7911616563796997 0.5274024605751038 0.0
0.8507462739944458 0.5270196795463562 0.0
1.1491369009017944 0.5274024605751038 0.0
1.0895521640777588 0.5270196795463562 0.0
0.9105646014213562 0.5274024605751038 0.0
0.9701492786407471 0.5270196795463562 0.0
1.0297338962554932 0.5274024605751038 0.0
1.4776118993759155 0.5259945392608643 0.0
1.597015619277954 0.5255197882652283 0.0
1.7164177894592285 0.525999903678894 0.0
1.6834615468978882 0.8477573990821838 0.0
1.5822722911834717 0.6086509227752686 0.0
0.20459823310375214 0.6270732283592224 0.0
1.8037469387054443 0.6209055185317993 0.0
0.09990309923887253 0.8589919805526733 0.0
1.9000968933105469 0.8589919805526733 0.0
1.75603187084198 0.5789161324501038 0.0
0.10896337777376175 0.5982794761657715 0.0
1.8910366296768188 0.5982794761657715 0.0
1.4950518608093262 0.605266273021698 0.0
1.7049394845962524 0.6007562279701233 0.0
1.4387125968933105 0.5775743722915649 0.0
1.489302158355713 0.851039469242096 0.0
0.15732239186763763 0.5961292386054993 0.0
1.8436260223388672 0.5944437384605408 0.0
0.4399496018886566 0.6259797215461731 0.0
1.022565245628357 0.6257523894309998 0.0
[...]
POINT_DATA 348
SCALARS Psi double
LOOKUP_TABLE default
1.087898474505918
1.0
1.0
1.0766684692566413
1.087788006230874
1.0875451104726945
1.089146808444085
1.0938728055775002
1.1033510760286003
1.1418217491790545
1.0
1.0
1.0
1.0
1.0
1.0
1.0
1.0
1.0
1.0
1.0
1.1342685463948643
1.0942751242409658
1.084475035483182
1.0798819113724065
1.0777145537983441
1.0768590541920255
1.0879812890902059
1.0867118737203658
1.0848223047273005
1.082420799961277
1.0794798105856376
1.0760237479536172
1.0721218737328333
1.0678672938765652
1.0633834607860377
1.0587584764216071
1.0540920620728182
1.049463046890955
1.0449565223378612
1.040624393395564
1.0364944248356236
1.0325996192880917
1.0289672844690563
1.0256109400015743
1.022518384511848
1.0196944968263217
1.017138190673537
1.0148448620382102
1.0127905844151865
1.010968779186521
1.009369171562934
1.0079826246132666
1.0067887562643627
1.0057803759758306
1.0049494028548862
1.0042890027962377
1.003786664641808
1.003438299319076
1.0032411995659947
1.0031934442639983
1.0032914481784272
1.0035346311375266
1.0039285742433686
1.0044762170590071
1.005180781898269
1.0060462357461992
1.0070859529070193
1.008306272464418
1.0097144700031624
1.0113162605269266
1.0131345528458298
1.0151740580343667
1.01743097004936
1.0199346785756118
1.022676493090148
1.025655503485553
1.028872214843617
1.0323240682515773
1.0359903891850188
1.0398395377927856
1.0438338440270762
1.047925536345239
1.0520543032562293
1.0561439082955968
1.0601072579917994
1.0638381740187954
1.0672402127748204
1.0702047587100585
1.0726291927367753
1.0744756476862989
1.0757491274576865
1.076461344435778
1.0467867111097475
1.0518854974995298
1.0201199545674673
1.0058086488405251
1.0016730890732297
1.0036439487144646
1.0139159671409281
1.0733682570847214
1.0821127466395333
1.0311074484642164
1.063534310992452
1.0566896057905442
1.04255300359473
1.0268241535057547
1.015624362388416
1.0084497788026177
1.0043633587493623
1.0028457867716805
1.0030421303403583
1.0054010944040002
1.0102988518924463
1.0190457071421448
1.0762815970208373
1.0856765450456398
1.0292513434324893
1.044529511697501
1.0659083918864356
1.0740341916067144
1.0030690600136971
1.004581156625481
1.0038189305409808
1.008611711426916
1.0070315646224728
1.0132384594371588
1.0232041804416918
1.0157540903958484
1.037486020199046
1.0554784179709236
1.071980830286009
1.0811616401264994
1.0372069616075084
1.078243879475634
1.086358019489145
1.053672817276496
1.0235734735172646
1.0130768691662626
1.0652546100949467
1.003197052473012
1.0035798881935638
1.005165743127909
1.006342712997286
1.0098477968555468
1.011873277050545
1.0179114426599631
1.0300947466121224
1.0464794892479876
1.0356947694515577
1.012354618443051
1.0031387426964242
1.0079927420496275
1.0019375177825471
1.090263855737428
1.0807843178728131
1.0226367967517493
1.0445797931518361
1.0766486529924697
1.0869297742305128
1.045499356402819
1.0301804044160836
1.0004324779457145
1.062223399494599
1.018259312227958
1.0105238643737668
1.0014801910947342
1.0321300518410077
1.0494026491767938
1.0022866924228702
1.0028325832447518
1.0035487593324008
1.0056184817133802
1.0068375194662311
1.0105844966847428
1.0140169693415868
1.0195846246205809
1.07169591746731
1.0635402041394337
1.003369088874759
1.0005515289266014
1.001909153008119
1.0044737988317907
1.0011770794818946
1.0738826786534958
1.0689326686853917
1.0837058532098656
1.0778577788647898
1.0080518454116598
1.0609556648015976
1.0698224662033151
1.0035449095528768
1.0031568981133812
1.0033514355710718
1.0041283491621866
1.0045480023594857
1.0061844091927719
1.0075849559331438
1.0055370177879102
1.0085721333130864
1.0117220718823785
1.0104033157148804
1.0139270178227928
1.0208731770420265
1.0158334216377227
1.0270743050415645
1.0342521732263181
1.0515054291938823
1.0425620823573993
1.039556706561153
1.0362112339411216
1.0980435920039124
1.0884747659977319
1.0302226293673078
1.0266177484462187
1.0193764487887333
1.077798180624439
1.0869960836179258
1.0498144934644749
1.0417081050560852
1.0271153359102432
1.033926273625814
1.0581499446394125
1.0211277923836954
1.065424181817107
1.0754785720491191
1.0715896555247875
1.0810291667557033
1.0859076136182277
1.0655604214028804
1.0740717861640996
1.0562842958538778
1.047032371277883
1.0383626599147864
1.030604475212457
1.0238980839152612
1.016320485811623
1.012123536430583
1.0182792587005498
1.0089275203721773
1.0137006778721849
1.0100775781267823
1.0065003902887604
1.0073102832350667
1.005304971057275
1.0047733073656622
1.0036843055083047
1.0039874088494394
1.0032948803011421
1.00319968993152
1.0240373575828996
1.0377827111537758
1.0540276655971694
1.0247321279254586
1.0340237284795013
1.072097795405377
1.065417477667314
1.0766798885028086
1.069455570011367
1.0590427058656984
1.0841870038584451
1.0751055971259464
1.0242340643880594
1.0512398238739726
1.0196470454202298
1.0091319940554677
1.0790605294258195
1.0704032401573647
1.0344440063442952
1.0027017717232876
1.003311606665361
1.0039833364085748
1.00614424724041
1.007590352498457
1.0117379897082428
1.0131967721968627
1.020894821976341
1.0530712580073502
1.0269044500744027
1.0769456125866192
1.0853521982253407
1.0490327200726117
1.0329780828114223
1.0415769128202013
1.0531510677116225
1.0023830257252764
1.0026693188057272
1.0039418911336477
1.0050219755394465
1.0079147626328107
1.009744105847925
1.0144741786151468
1.0255108295520226
1.0411378679621537
1.107972033997299
1.0992860060360776
1.0766662395483457
1.0879553704915914
1.060763065408411
1.0029734870243028
1.0032515757368852
1.0031706622359366
1.0612209313493595
1.0037527086784614
1.004377022242905
1.0056003462581158
1.0053642798870404
1.0069008653554925
1.0083446693184102
1.0107080771129586
1.0101583380857
1.0127990591731149
1.0154620518406463
1.0192794234283076
1.0265465388355413
1.0680748969585938
1.0320716499156903
1.0420100803880308
1.0488854790191864
1.0174362726640074
1.0457873258268329
1.0304818268431852
1.038647165776141
1.00145701657544
1.0217583110289161
1.0389659103822078
1.0837777927920298
1.0744046642618987
1.0002569121773366
1.0282062276242918
1.0692428658326412
1.0781093475385566
1.00394019568537
1.0875215093190753
1.0771331067684837
1.087213640991447
1.0783251134840615
1.069063875364848
1.0624278431759806
1.0620060165734513
1.018597516990546
1.0010538007721423
1.0163453081958265
1.0065916817527136
1.0761908357874121
1.0872104888628669
1.052818722283489
1.0469710938931724

SCALARS Omega double
LOOKUP_TABLE default
4.100276591395365
-10.32773079543613
-14.26864956339786
0.13217857057046747
4.492515426468735
-2.6837945533083882
-4.473557660634727
3.5422922230914486
1.031478153519568
20.84264546033726
-8.188675201154098
-0.40947252232511644
-0.8985275653938948
-0.23421395942753837
-0.11369097867128872
-0.03061211119012363
-0.11116900932413488
-0.18643504131185779
-0.6569892800265681
-0.611033925692359
-6.115745385050995
17.94367058510947
3.5124636782392975
-1.0379081270119843
0.14534828365023267
0.033512257695778196
-0.3220314024809361
2.111361729825428
1.0918367791701473
0.7143021740895414
0.5849518485730146
0.532723942492959
0.5070780229780969
0.478190195345335
0.44153688695108484
0.397411780567088
0.3477326855174156
0.296246395664524
0.2449789202427584
0.19618313349197306
0.15080900292460803
0.10952048225670083
0.07261347350639437
0.04033345357912592
0.012569702993086662
-0.011155351329584378
-0.03108181975535589
-0.04752459062711506
-0.06081139786221042
-0.07154132509423773
-0.0800135526164249
-0.08658310712087292
-0.0915138978499947
-0.09520530149861699
-0.097851493374837
-0.09967300325199506
-0.10081314043691325
-0.10146383312963822
-0.10170958672120106
-0.10162686877438161
-0.10124796093657733
-0.10059290948863212
-0.09964829274356574
-0.09834303166584642
-0.09661228012447634
-0.09434272394968372
-0.09142625853745023
-0.08763222668431152
-0.08279843107413086
-0.07668844523080239
-0.06909527064199912
-0.0595473172910317
-0.04780290324996485
-0.0336649738854602
-0.01647275171220497
0.003910499114039558
0.02774308170473225
0.05530912053745988
0.08677693338047672
0.12203690492204997
0.160576131360844
0.2016896050434836
0.24401350578082548
0.2859350888697414
0.32478694600395835
0.35760137009317017
0.3795471549340505
0.38524800492436573
0.37065562196717267
0.33000239086045785
0.26103410293980345
0.16510919313833827
0.06635078647396261
0.31510667870974146
0.3393627792575572
-0.11646412749212136
-0.13091185667442753
-0.10570544244128707
-0.11366535237418258
-0.12385496956468971
0.7178328075969623
0.8448250621504688
0.04691930011487026
0.4698816282080025
0.40812474717935665
0.1669496075582839
0.002897547175422572
-0.07395212630508866
-0.10007944145244803
-0.10519634428525491
-0.10385548595556131
-0.10230780758084877
-0.09843631749301421
-0.08460653283898512
-0.04068562454058442
0.3065098106909629
0.09488991775552526
0.05186250842975603
0.21730105434219235
0.4399174100869815
0.5280590909252943
-0.10168073739804091
-0.0971510526444333
-0.10234065547099869
-0.08372762102510715
-0.09659159909592203
-0.07320444395688336
-0.01117193271889441
-0.04893133638164611
0.11627850663337425
0.32074728071659425
0.4093844304730167
0.4908519705420579
0.13352109534942638
2.249060120061608
2.527400928682842
0.3156010861576761
0.007244176733278222
-0.3187831354448997
0.4342894838820172
-0.10231092622108472
-0.09981692806405458
-0.10036161191588859
-0.09157790155478084
-0.08711259275202847
-0.06873062135340867
-0.04655457285695231
0.04633405892939351
0.21351020278403762
0.040642050454334305
-0.1434431663938933
-0.11680355787946871
-0.12342029435512422
-0.10619346693417703
0.967627232860943
0.5747828401965918
-0.03102886952373423
0.237994571403
0.14049951445123204
0.45038740922741594
0.22190937382064074
0.06523625353622366
-0.09857906644495751
0.387523224205541
-0.030069434434407395
-0.4188839881073946
-0.1508136577813836
0.03255470394298583
0.27537492140949815
-0.10461616328969615
-0.10807518480278691
-0.10488149130466709
-0.11268902260609075
-0.10497213967851948
-0.11310599821853684
-0.08190653120131541
-0.07324263405403834
0.8361155033640416
0.6923071888276437
-0.2008834015344558
-0.0979626460499807
-0.14249513301138506
-0.20891313998483993
-0.11464430760700291
0.3216035002333214
0.3990826750053192
0.5432661528299089
0.5181516061358457
-0.3016400703848696
0.3762588670955611
0.4676878473958343
-0.10188407620136154
-0.10167070349686165
-0.10038421079555897
-0.09788440007489155
-0.1007293031461616
-0.09731626898273803
-0.08620622829729131
-0.09350530320948817
-0.09023276549149085
-0.07756313163718301
-0.07426981170367823
-0.05627397508185049
-0.024308275533484403
-0.056498592003425885
0.02302009819072383
0.08697762293821677
0.2689062158620156
0.17062922353079965
-0.6191909294917766
-0.5147470841169445
2.3294452251188025
1.9777754326562038
-0.011509735355374275
-0.23816940700230135
-0.12062838988453985
0.16690677657343542
-1.021732204132469
0.2655262803328827
0.18017280045770337
0.039206147176575515
0.10148348527304402
0.346625146972137
-0.008566668969853418
0.3920916325696121
0.2186064418606481
0.36523518411920586
0.5338230402322429
0.7124939981818896
0.4234154728675369
0.49727144014898544
0.3222716188816111
0.21880357136845455
0.127522187314986
0.05381235952117272
-0.00166065191725359
-0.04142765044564257
-0.06554031119322999
-0.04122242055253259
-0.08056138243522483
-0.06760899316182317
-0.08431587013587234
-0.0900782084111205
-0.09403104486061585
-0.09919241075173506
-0.09582606824290729
-0.09921886260678384
-0.10139610467726932
-0.101844075805749
-0.1010833229589111
0.013962250849886847
0.1397994391224108
0.30760252635710933
-0.26389127315740357
0.09725913339108938
0.6218180596335213
0.5337798651870624
2.903995377801651
2.1556482072658447
0.38564602074543497
0.431595959535651
0.4734073822376061
0.005161758004363205
0.30623706254320215
-0.024410384897523722
-0.2810106959149955
0.5921227818732226
0.5085895250221975
0.07552629316157113
-0.10322296887731182
-0.1047289392177951
-0.10082993819186427
-0.10385718316140825
-0.09299651549749205
-0.08998797085806852
-0.07147385155956912
-0.04182883895740722
0.31016150189176384
0.03413599037442787
1.2523254612617742
1.478574822790498
0.26516210034470056
0.09036934035610221
0.18033095470585056
0.4136173790001852
-0.10537196689889439
-0.10433475528592315
-0.11016426596226618
-0.104445506324031
-0.11200116001573367
-0.0977274694777735
-0.09915262606974282
-0.028490043251692274
0.14423106337711636
5.598342302591949
5.403331021629085
-0.012855761300130868
2.09756903071032
0.48885287031241
-0.10265928973091885
-0.10312383634480388
-0.10135194605798112
0.4019968996810337
-0.0998380553847852
-0.10270297647368071
-0.10100566888395272
-0.09587048404946616
-0.09124247914476243
-0.09487819303128141
-0.08672286982800625
-0.07944071603574142
-0.06713690872751456
-0.06531830849045026
-0.04228617850093001
0.01099942535693456
0.4886783081711038
0.0603949183918271
0.162872021913278
0.2437090018556918
-0.06902117037216901
0.2226250902268087
0.06938332803353152
0.14914127614685233
-0.10985028243038221
-0.168299378466864
0.152249106004411
0.3821709177777601
0.3751898652401283
-0.08900149604136486
0.03241088177723882
0.44000536699574855
0.5321896093696157
-0.13409298090490443
0.46689768371770074
0.01121978928082618
-0.5101373601021367
0.34085160636941797
1.0203185730901556
0.9271598518390941
0.3733238666502763
-0.026222501830743993
-0.17256911002191394
-0.05296720420535753
-0.16617295466227208
0.11856080318457185
1.2482118262420245
0.5729328676153904
-1.2167721124875202

SCALARS Vx_analytic double
LOOKUP_TABLE default
4.100276591395365
-10.32773079543613
-14.26864956339786
0.13210637964605793
4.492515426468735
-2.6837945533083882
-4.473557660634727
3.5422922230914486
1.031478153519568
20.84264546033726
-8.188675201154098
-0.40947252232511644
-0.8985275653938948
-0.23421395942753837
-0.11369097867128872
-0.03061211119012363
-0.11116900932413488
-0.18643504131185779
-0.6569892800265679
-0.611033925692359
-6.115745385050995
17.94367058510947
3.5132646958976026
-1.01577052216447
0.1475555398778743
0.03451969899723031
-0.3200761990912283
2.111361729825428
1.0918367791701473
0.7143021740895414
0.5849518485730146
0.532723942492959
0.5070780229780969
0.478190195345335
0.44153688695108484
0.397411780567088
0.3477326855174156
0.296246395664524
0.2449789202427584
0.19618313349197306
0.15080900292460803
0.10952048225670083
0.07261347350639437
0.04033345357912592
0.012569702993086662
-0.011155351329584378
-0.03108181975535589
-0.04752459062711506
-0.06081139786221042
-0.07154132509423773
-0.0800135526164249
-0.08658310712087292
-0.0915138978499947
-0.09520530149861699
-0.097851493374837
-0.09967300325199506
-0.10081314043691325
-0.10146383312963822
-0.10170958672120106
-0.10162686877438161
-0.10124782765055039
-0.10059294204194699
-0.0996484550493806
-0.09834350190110003
-0.09661312131879513
-0.09434451871860625
-0.09142861870458524
-0.08763597043768886
-0.08280334278890733
-0.07669661379637618
-0.06910496134825232
-0.059561448513907767
-0.04782298754005545
-0.03367246039641639
-0.016485391452376125
0.0038884095097818693
0.02772151838471746
0.055297474114433344
0.08676827989983128
0.12202034388196983
0.16057453055739998
0.2017095464310441
0.24406643450332527
0.28600158380066726
0.32489654469077817
0.3577128693745152
0.37972785692920596
0.3856007159067974
0.3710283160670525
0.3304074131022786
0.26136830543623657
0.16535185060561572
0.06630766750180651
0.3072890282179614
0.33717061452092423
-0.11573714656013524
-0.13079943948012976
-0.10570535512391668
-0.1137278022994908
-0.12456353024138231
0.7269997387825544
0.8347617254271038
0.04600727050653781
0.46799101154746975
0.41050734696060864
0.16692146289099902
0.003136668823903247
-0.07378379845270763
-0.1000156739190335
-0.10518127231499143
-0.10385296486822167
-0.10231052803076723
-0.09846832164148839
-0.08473012843988588
-0.041016717923835724
0.30863173663666127
0.1016415681510061
0.051537871129865215
0.21754434337179288
0.4422804079350158
0.5270414712543847
-0.1016803665523452
-0.09715932322660006
-0.10233728464411602
-0.08377000668667445
-0.09657556248298346
-0.0731579142002204
-0.011102327663138735
-0.04907507932942255
0.11625277765604822
0.3202582298912208
0.4115959586539278
0.49215553312080046
0.13340677181582272
2.256243746621558
2.4658842148376974
0.3162010447825536
0.007045941752142618
-0.3199528326109912
0.4335301034134762
-0.10230954769970155
-0.09981884026472025
-0.10035371804727472
-0.09159326976904333
-0.08708221543359745
-0.06878611534530404
-0.046483303438579336
0.04641118694695867
0.21338885459220333
0.04151052174497336
-0.14299730792784024
-0.11677288635863842
-0.12376119510986004
-0.10620445994409143
0.8926160215205152
0.5831067609988357
-0.03178275469461258
0.2379372067213962
0.14188665745950924
0.45922610610644427
0.22203848098082554
0.06507796699728219
-0.09857956794857858
0.3884750777202478
-0.030156942438428303
-0.4175139088450194
-0.15089691667409647
0.032833074894913224
0.2746372744133514
-0.10461649295415029
-0.10806434632249187
-0.10490610193156877
-0.11263371909575463
-0.10508948353650174
-0.11291175052287324
-0.08229300621660393
-0.07287632478518744
0.828237082662903
0.6979119990900461
-0.20066822435962592
-0.09797116703089573
-0.14243482955312375
-0.20985491953469654
-0.11468425977838063
0.32291998604911865
0.4004661603598802
0.5455847679290506
0.5182087427677181
-0.30079309657106607
0.37596233365092996
0.4672919894446664
-0.10188333045339054
-0.10167020731103005
-0.10038502890796364
-0.09788823854675499
-0.10072764797374012
-0.09731253721591285
-0.08622901541256428
-0.09351735548255041
-0.090226410662988
-0.0775527557513929
-0.07432039420404185
-0.05635099744409662
-0.024297351235120935
-0.05648791947704439
0.023012124120602714
0.08694559797827606
0.2687318303377955
0.17053225418634463
-0.6002055555256639
-0.540400401820949
2.332489161030545
1.9952133237032814
-0.01425735825523258
-0.23526584133959683
-0.1219607855521326
0.16889580909623822
-1.006428528816631
0.2657657157797656
0.18013718698294431
0.0390508659486562
0.10135564260067065
0.3473621975745075
-0.008684319444190305
0.39328239635323603
0.21971500681165315
0.36633678585637086
0.5347506766808486
0.71672424417743
0.4231117937816314
0.4970539901841559
0.32210796456542373
0.21875178329698677
0.1275192138171473
0.05384393201624308
-0.0016322894206654576
-0.04151191155064414
-0.06558852477115024
-0.04119317859995754
-0.08058918605330671
-0.06759113277234935
-0.08430334731521966
-0.09009150162918388
-0.09402489191073156
-0.09918920923254769
-0.0958318457216489
-0.09922064608284889
-0.10139490965510323
-0.1018436102051505
-0.10108341549804577
0.013839356920075638
0.13970756573244625
0.3079784830519124
-0.26982869697738054
0.09687450540465276
0.6181302600909361
0.5377275131524867
2.8036412452532895
1.9883210013783084
0.3871698791886606
0.42802012396642836
0.4775215942838471
0.004780602870163601
0.30695853228080494
-0.024649601427365553
-0.282424662874531
0.5891893005314816
0.5124021151991304
0.07569952319075846
-0.1032224603563381
-0.10472312727565733
-0.10084273201007388
-0.10382419512380628
-0.09306743180288424
-0.08988417115472999
-0.07166214313221181
-0.04160908275382669
0.3094423826452492
0.03395512403854615
1.2650001535191207
1.4602339633011807
0.26559395215650927
0.09019050064835797
0.18038623593961498
0.4148559104648654
-0.10536896235447726
-0.10433930005250104
-0.11013665881849337
-0.10448760294828104
-0.11189194719586647
-0.09790551172982769
-0.09883423321628988
-0.028031205036259957
0.14415472576217178
5.320999423523932
5.209113620693722
-0.012093327464068505
2.094004461101581
0.48593036170383325
-0.10265782145731145
-0.10312143453262368
-0.10135356154035635
0.4010911438352782
-0.0998434218409821
-0.1026951536395781
-0.10099102635381195
-0.09589104254706213
-0.0912752761062503
-0.09484443757977463
-0.08667060521092443
-0.07952305266772593
-0.06724861035058362
-0.06522696170436167
-0.04217311602229148
0.011130154359654358
0.48724962629616253
0.06049584216775463
0.16281780513829508
0.24343739591993954
-0.06948058667620487
0.22266343541758504
0.06925833770226114
0.14915758458659809