# vtk DataFile Version 1.0
2D Simulation C++
ASCII
DATASET UNSTRUCTURED_GRID
FIELD FieldData 1
NODES 1 2 int
348 601

POINTS 348 double
0.0 0.5 0.0
0.0 1.0 0.0
2.0 1.0 0.0
2.0 0.5 0.0
0.0 0.528801679611206 0.0
0.0 0.564507782459259 0.0
0.0 0.6110168099403381 0.0
0.0 0.6721802353858948 0.0
0.0 0.7528436183929443 0.0
0.0 0.8593378663063049 0.0
0.16666941344738007 1.0 0.0
0.3333356976509094 1.0 0.0
0.5000020265579224 1.0 0.0
0.6666678786277771 1.0 0.0
0.8333337306976318 1.0 0.0
1.0 1.0 0.0
1.1666662693023682 1.0 0.0
1.3333321809768677 1.0 0.0
1.4999979734420776 1.0 0.0
1.6666642427444458 1.0 0.0
1.8333306312561035 1.0 0.0
2.0 0.8593378663063049 0.0
2.0 0.7528436183929443 0.0
2.0 0.6721802353858948 0.0
2.0 0.6110168099403381 0.0
2.0 0.564507782459259 0.0
2.0 0.528801679611206 0.0
0.029850948601961136 0.5 0.0
0.05970168858766556 0.5 0.0
0.08955242484807968 0.5 0.0
0.1194031685590744 0.5 0.0
0.14925390481948853 0.5 0.0
0.17910465598106384 0.5 0.0
0.20895539224147797 0.5 0.0
0.2388061285018921 0.5 0.0
0.2686568796634674 0.5 0.0
0.29850760102272034 0.5 0.0
0.32835835218429565 0.5 0.0
0.35820910334587097 0.5 0.0
0.3880598247051239 0.5 0.0
0.4179105758666992 0.5 0.0
0.44776129722595215 0.5 0.0
0.47761204838752747 0.5 0.0
0.5074627995491028 0.5 0.0
0.5373135209083557 0.5 0.0
0.5671642422676086 0.5 0.0
0.5970150232315063 0.5 0.0
0.6268657445907593 0.5 0.0
0.6567164659500122 0.5 0.0
0.6865672469139099 0.5 0.0
0.7164179682731628 0.5 0.0
0.7462686896324158 0.5 0.0
0.7761194705963135 0.5 0.0
0.8059701919555664 0.5 0.0
0.8358209133148193 0.5 0.0
0.865671694278717 0.5 0.0
0.89552241563797 0.5 0.0
0.9253731369972229 0.5 0.0
0.9552239179611206 0.5 0.0
0.9850746393203735 0.5 0.0
1.0149253606796265 0.5 0.0
1.0447760820388794 0.5 0.0
1.0746268033981323 0.5 0.0
1.1044776439666748 0.5 0.0
1.1343283653259277 0.5 0.0
1.1641790866851807 0.5 0.0
1.1940298080444336 0.5 0.0
1.2238805294036865 0.5 0.0
1.2537312507629395 0.5 0.0
1.2835819721221924 0.5 0.0
1.3134328126907349 0.5 0.0
1.3432835340499878 0.5 0.0
1.3731342554092407 0.5 0.0
1.4029849767684937 0.5 0.0
1.4328356981277466 0.5 0.0
1.4626864194869995 0.5 0.0
1.492537260055542 0.5 0.0
1.522387981414795 0.5 0.0
1.5522387027740479 0.5 0.0
1.5820894241333008 0.5 0.0
1.6119401454925537 0.5 0.0
1.6417908668518066 0.5 0.0
1.6716417074203491 0.5 0.0
1.701492428779602 0.5 0.0
1.731343150138855 0.5 0.0
1.761193871498108 0.5 0.0
1.7910445928573608 0.5 0.0
1.8208953142166138 0.5 0.0
1.8507460355758667 0.5 0.0
1.8805968761444092 0.5 0.0
1.910447597503662 0.5 0.0
1.940298318862915 0.5 0.0
1.970149040222168 0.5 0.0
1.7358819246292114 0.7499510645866394 0.0
0.2656642198562622 0.7486277222633362 0.0
0.49981194734573364 0.737183690071106 0.0
0.74151611328125 0.7359843254089355 0.0
0.9774143695831299 0.7371892929077148 0.0
1.201690912246704 0.7367381453514099 0.0
1.447761058807373 0.7383390665054321 0.0
1.8591958284378052 0.6421071290969849 0.0
0.14080412685871124 0.6421071290969849 0.0
1.588537573814392 0.6783608794212341 0.0
0.2553686201572418 0.6221352219581604 0.0
1.7466964721679688 0.6278358101844788 0.0
0.38199201226234436 0.6273008584976196 0.0
0.5013589859008789 0.6272794008255005 0.0
0.6207823157310486 0.6272526383399963 0.0
0.7401852607727051 0.627252459526062 0.0
0.8595882654190063 0.6272523999214172 0.0
0.9701492786407471 0.6212864518165588 0.0
1.0807102918624878 0.6272523999214172 0.0
1.2001131772994995 0.6272523999214172 0.0
1.3195161819458008 0.6272523999214172 0.0
1.4488563537597656 0.6310953497886658 0.0
1.9247323274612427 0.5706554055213928 0.0
0.07526770234107971 0.5706554055213928 0.0
1.5377081632614136 0.5910930037498474 0.0
1.6566967964172363 0.5934624075889587 0.0
1.8074009418487549 0.5708622932434082 0.0
0.1940300166606903 0.5737577676773071 0.0
1.0286364555358887 0.5665481686592102 0.0
1.14803946018219 0.5665481686592102 0.0
0.9116620421409607 0.5665481686592102 0.0
1.2674424648284912 0.5665481686592102 0.0
0.7922590970993042 0.5665481686592102 0.0
0.6728560328483582 0.5665482878684998 0.0
0.5534531474113464 0.5665481686592102 0.0
1.3892061710357666 0.5727682709693909 0.0
0.43402159214019775 0.5665869116783142 0.0
0.3146642744541168 0.5667200088500977 0.0
1.8656742572784424 0.5607567429542542 0.0
0.1343258023262024 0.5607567429542542 0.0
1.5970147848129272 0.5642029047012329 0.0
1.8783670663833618 0.7786769866943359 0.0
0.12163297086954117 0.7786769866943359 0.0
1.7164177894592285 0.562579333782196 0.0
1.4776118993759155 0.5620538592338562 0.0
1.5857784748077393 0.867691159248352 0.0
0.25373148918151855 0.5588531494140625 0.0
0.9701492786407471 0.5582930445671082 0.0
1.0895521640777588 0.5582930445671082 0.0
0.8507462739944458 0.5582930445671082 0.0
1.20895516872406 0.5582930445671082 0.0
0.7313433289527893 0.5582930445671082 0.0
1.3283581733703613 0.5582930445671082 0.0
0.6119403839111328 0.5582930445671082 0.0
0.49253740906715393 0.5582930445671082 0.0
0.37313446402549744 0.5582956075668335 0.0
0.36864349246025085 0.7376502752304077 0.0
0.602456271648407 0.7355343103408813 0.0
0.8441241383552551 0.7366551756858826 0.0
1.3355978727340698 0.7366551160812378 0.0
1.0895521640777588 0.7378703355789185 0.0
0.07051979005336761 0.6486480832099915 0.0
1.9294801950454712 0.6486480832099915 0.0
1.5086064338684082 0.6743985414505005 0.0
1.6785967350006104 0.6649783849716187 0.0
1.9543375968933105 0.5452249050140381 0.0
0.04566239193081856 0.5452249050140381 0.0
1.6567095518112183 0.5496091842651367 0.0
1.53738272190094 0.5491842031478882 0.0
0.91306072473526 0.8965699672698975 0.0
1.7782752513885498 0.5446287989616394 0.0
1.4163299798965454 0.5447981357574463 0.0
0.4287482798099518 0.8945969939231873 0.0
1.2610714435577393 0.8950135707855225 0.0
0.4313095211982727 0.6832783222198486 0.0
0.31561949849128723 0.6858259439468384 0.0
1.029850721359253 0.6781684160232544 0.0
0.9082015752792358 0.6848641633987427 0.0
1.1492537260055542 0.6781684160232544 0.0
0.7886138558387756 0.678956151008606 0.0
1.2709345817565918 0.684736430644989 0.0
0.6685023903846741 0.6868807673454285 0.0
1.4007169008255005 0.6702371835708618 0.0
0.5483440160751343 0.6792802214622498 0.0
0.19808045029640198 0.6887137293815613 0.0
1.797759771347046 0.6853783130645752 0.0
0.6811949610710144 0.8757594227790833 0.0
1.0189321041107178 0.8474968671798706 0.0
0.7922950983047485 0.8446238040924072 0.0
1.3765455484390259 0.8590760827064514 0.0
1.1571698188781738 0.8478953838348389 0.0
1.8954496383666992 0.5359624624252319 0.0
1.8360060453414917 0.5359931588172913 0.0
0.10455036163330078 0.5359624624252319 0.0
0.16417928040027618 0.5353734493255615 0.0
0.5530290007591248 0.8422092199325562 0.0
0.2832632064819336 0.5367912650108337 0.0
0.22469767928123474 0.5394234657287598 0.0
0.9405550956726074 0.5357381105422974 0.0
0.9997434020042419 0.5357381105422974 0.0
1.0600273609161377 0.5365630984306335 0.0
1.1191463470458984 0.5357381105422974 0.0
0.8802711367607117 0.5365630984306335 0.0
0.8211521506309509 0.5357381105422974 0.0
1.2385493516921997 0.5357381105422974 0.0
1.179430365562439 0.5365630984306335 0.0
0.7608681321144104 0.5365630984306335 0.0
0.7017492055892944 0.5357381105422974 0.0
1.2988333702087402 0.5365630984306335 0.0
1.357560396194458 0.5390686392784119 0.0
0.5823462605476379 0.5357381105422974 0.0
0.6414651870727539 0.5365630984306335 0.0
0.5220622420310974 0.5365630984306335 0.0
0.4629422128200531 0.535739541053772 0.0
0.3435409665107727 0.5357455015182495 0.0
0.4026572108268738 0.5365669131278992 0.0
0.21006634831428528 0.8590372204780579 0.0
1.7943172454833984 0.8627070188522339 0.0
0.06134982034564018 0.7191494703292847 0.0
1.938650131225586 0.7191494703292847 0.0
1.634666085243225 0.7584379315376282 0.0
0.3355695903301239 0.8387951850891113 0.0
1.537941336631775 0.7633647918701172 0.0
1.9670078754425049 0.574067234992981 0.0
0.032992132008075714 0.574067234992981 0.0
1.6862140893936157 0.5314788222312927 0.0
1.6272135972976685 0.5317342281341553 0.0
1.5077245235443115 0.5309156775474548 0.0
1.5668202638626099 0.5316618084907532 0.0
1.7466963529586792 0.5298213958740234 0.0
1.4473658800125122 0.5297333002090454 0.0
1.804386019706726 0.5275400876998901 0.0
1.9283779859542847 0.5282225012779236 0.0
1.8656879663467407 0.5267112255096436 0.0
0.13432854413986206 0.5271331071853638 0.0
0.07162196189165115 0.5282225012779236 0.0
0.25373148918151855 0.527070939540863 0.0
0.19419340789318085 0.5297109484672546 0.0
0.31349387764930725 0.5272363424301147 0.0
0.37313446402549744 0.5270199179649353 0.0
0.4329495429992676 0.5274069309234619 0.0
0.49253740906715393 0.5270196795463562 0.0
0.5523557066917419 0.5274024605751038 0.0
1.3898069858551025 0.5277745127677917 0.0
1.3283581733703613 0.5270196795463562 0.0
0.6119403839111328 0.5270196795463562 0.0
1.2685397863388062 0.5274024605751038 0.0
0.6717586517333984 0.5274024605751038 0.0
0.7313433289527893 0.5270196795463562 0.0
1.20895516872406 0.5270196795463562 0.0
0.7911616563796997 0.5274024605751038 0.0
0.8507462739944458 0.5270196795463562 0.0
1.1491369009017944 0.5274024605751038 0.0
1.0895521640777588 0.5270196795463562 0.0
0.9105646014213562 0.5274024605751038 0.0
0.9701492786407471 0.5270196795463562 0.0
1.0297338962554932 0.5274024605751038 0.0
1.4776118993759155 0.5259945392608643 0.0
1.597015619277954 0.5255197882652283 0.0
1.7164177894592285 0.525999903678894 0.0
1.6834615468978882 0.8477573990821838 0.0
1.5822722911834717 0.6086509227752686 0.0
0.20459823310375214 0.6270732283592224 0.0
1.8037469387054443 0.6209055185317993 0.0
0.09990309923887253 0.8589919805526733 0.0
1.9000968933105469 0.8589919805526733 0.0
1.75603187084198 0.5789161324501038 0.0
0.10896337777376175 0.5982794761657715 0.0
1.8910366296768188 0.5982794761657715 0.0
1.4950518608093262 0.605266273021698 0.0
1.7049394845962524 0.6007562279701233 0.0
1.4387125968933105 0.5775743722915649 0.0
1.489302158355713 0.851039469242096 0.0
0.15732239186763763 0.5961292386054993 0.0
1.8436260223388672 0.5944437384605408 0.0
0.4399496018886566 0.6259797215461731 0.0
1.022565245628357 0.6257523894309998 0.0
[...]
POINT_DATA 348
SCALARS Psi double
LOOKUP_TABLE default
1.0878984745059215
1.0
1.0
1.0766684692566428
1.0877880062308773
1.0875451104726979
1.0891468084440878
1.0938728055775022
1.1033510760286018
1.1418217491790557
1.0
1.0
1.0
1.0
1.0
1.0
1.0
1.0
1.0
1.0
1.0
1.1342685463948645
1.0942751242409663
1.0844750354831825
1.0798819113724067
1.0777145537983448
1.0768590541920269
1.0879812890902094
1.0867118737203694
1.0848223047273042
1.0824207999612805
1.0794798105856411
1.0760237479536208
1.0721218737328366
1.0678672938765683
1.0633834607860404
1.0587584764216094
1.05409206207282
1.0494630468909563
1.0449565223378623
1.040624393395565
1.0364944248356243
1.0325996192880924
1.0289672844690567
1.0256109400015747
1.0225183845118484
1.019694496826322
1.0171381906735368
1.01484486203821
1.0127905844151868
1.0109687791865207
1.0093691715629338
1.0079826246132662
1.0067887562643625
1.0057803759758301
1.0049494028548862
1.004289002796238
1.0037866646418085
1.0034382993190767
1.0032411995659956
1.003193444263999
1.0032914481784274
1.003534631137527
1.0039285742433692
1.0044762170590082
1.0051807818982699
1.0060462357462001
1.00708595290702
1.0083062724644192
1.0097144700031635
1.0113162605269277
1.013134552845831
1.0151740580343678
1.0174309700493616
1.0199346785756138
1.0226764930901497
1.0256555034855548
1.0288722148436185
1.0323240682515784
1.0359903891850197
1.0398395377927863
1.043833844027077
1.0479255363452395
1.0520543032562297
1.0561439082955972
1.0601072579917994
1.0638381740187952
1.0672402127748204
1.070204758710059
1.0726291927367761
1.0744756476863
1.0757491274576878
1.0764613444357796
1.0467867111097484
1.0518854974995304
1.020119954567467
1.005808648840525
1.0016730890732302
1.003643948714465
1.0139159671409288
1.0733682570847218
1.0821127466395357
1.0311074484642169
1.0635343109924538
1.0566896057905446
1.0425530035947304
1.0268241535057547
1.0156243623884162
1.0084497788026174
1.0043633587493623
1.002845786771681
1.0030421303403587
1.0054010944040008
1.0102988518924476
1.0190457071421464
1.0762815970208377
1.0856765450456431
1.02925134343249
1.0445295116975013
1.0659083918864354
1.0740341916067173
1.0030690600136976
1.0045811566254816
1.0038189305409813
1.008611711426917
1.0070315646224726
1.0132384594371588
1.0232041804416918
1.01575409039585
1.0374860201990463
1.0554784179709253
1.0719808302860092
1.0811616401265027
1.0372069616075086
1.0782438794756346
1.0863580194891465
1.0536728172764962
1.0235734735172661
1.013076869166263
1.0652546100949494
1.003197052473013
1.0035798881935645
1.0051657431279089
1.0063427129972868
1.0098477968555466
1.011873277050546
1.017911442659963
1.0300947466121229
1.0464794892479887
1.035694769451558
1.012354618443051
1.0031387426964244
1.0079927420496284
1.001937517782548
1.0902638557374307
1.0807843178728134
1.02263679675175
1.0445797931518364
1.0766486529924708
1.0869297742305162
1.0454993564028194
1.0301804044160845
1.0004324779457145
1.062223399494599
1.0182593122279595
1.0105238643737668
1.0014801910947344
1.032130051841008
1.0494026491767943
1.0022866924228706
1.0028325832447522
1.0035487593324017
1.0056184817133802
1.0068375194662318
1.0105844966847426
1.014016969341588
1.0195846246205809
1.0716959174673117
1.0635402041394344
1.003369088874759
1.0005515289266016
1.001909153008119
1.004473798831791
1.0011770794818948
1.0738826786534967
1.0689326686853922
1.0837058532098691
1.0778577788647932
1.0080518454116596
1.0609556648016
1.0698224662033182
1.0035449095528775
1.003156898113382
1.0033514355710722
1.0041283491621875
1.0045480023594857
1.0061844091927716
1.0075849559331447
1.0055370177879108
1.0085721333130864
1.0117220718823783
1.0104033157148815
1.0139270178227942
1.0208731770420267
1.0158334216377227
1.0270743050415647
1.0342521732263186
1.051505429193884
1.0425620823574002
1.0395567065611537
1.0362112339411225
1.0980435920039144
1.0884747659977323
1.0302226293673082
1.0266177484462187
1.0193764487887336
1.0777981806244399
1.086996083617929
1.049814493464475
1.0417081050560857
1.0271153359102447
1.0339262736258148
1.0581499446394125
1.0211277923836972
1.0654241818171069
1.0754785720491205
1.071589655524788
1.0810291667557068
1.0859076136182315
1.0655604214028833
1.0740717861641031
1.05628429585388
1.0470323712778842
1.038362659914787
1.0306044752124575
1.0238980839152614
1.0163204858116246
1.012123536430584
1.0182792587005496
1.0089275203721784
1.0137006778721849
1.0100775781267823
1.006500390288761
1.0073102832350664
1.0053049710572748
1.004773307365663
1.0036843055083053
1.0039874088494398
1.0032948803011432
1.0031996899315205
1.0240373575829014
1.0377827111537765
1.0540276655971699
1.024732127925459
1.0340237284795017
1.0720977954053794
1.0654174776673144
1.0766798885028095
1.0694555700113677
1.0590427058656986
1.084187003858448
1.0751055971259469
1.0242340643880607
1.0512398238739726
1.0196470454202313
1.0091319940554682
1.0790605294258222
1.0704032401573649
1.0344440063442955
1.0027017717232884
1.0033116066653613
1.0039833364085755
1.00614424724041
1.0075903524984577
1.0117379897082428
1.0131967721968642
1.0208948219763412
1.0530712580073514
1.0269044500744038
1.0769456125866197
1.0853521982253425
1.049032720072612
1.0329780828114228
1.0415769128202017
1.053151067711623
1.0023830257252768
1.002669318805728
1.0039418911336477
1.0050219755394474
1.0079147626328102
1.0097441058479262
1.0144741786151468
1.0255108295520228
1.0411378679621537
1.1079720339973005
1.0992860060360778
1.0766662395483473
1.0879553704915947
1.0607630654084124
1.0029734870243034
1.0032515757368856
1.003170662235937
1.0612209313493617
1.0037527086784621
1.004377022242905
1.0056003462581156
1.005364279887041
1.0069008653554932
1.00834466931841
1.0107080771129586
1.0101583380857013
1.0127990591731162
1.0154620518406465
1.0192794234283076
1.0265465388355415
1.0680748969585967
1.0320716499156906
1.0420100803880312
1.0488854790191875
1.0174362726640083
1.0457873258268335
1.0304818268431866
1.0386471657761411
1.0014570165754404
1.021758311028916
1.038965910382208
1.0837777927920331
1.0744046642618992
1.0002569121773368
1.0282062276242923
1.069242865832641
1.0781093475385597
1.0039401956853704
1.0875215093190786
1.0771331067684848
1.0872136409914501
1.078325113484062
1.0690638753648491
1.0624278431759813
1.0620060165734513
1.0185975169905477
1.0010538007721423
1.0163453081958278
1.0065916817527136
1.0761908357874137
1.0872104888628706
1.0528187222834895
1.0469710938931727

SCALARS Omega double
LOOKUP_TABLE default
4.10027659139583
-10.327730795436157
-14.268649563397805
0.1321785705696955
4.4925154264696
-2.6837945533076812
-4.473557660634656
3.5422922230915934
1.0314781535196733
20.842645460337327
-8.188675201154123
-0.40947252232514136
-0.8985275653939194
-0.23421395942757367
-0.11369097867133887
-0.030612111190207455
-0.1111690093241828
-0.18643504131187724
-0.6569892800265682
-0.6110339256923671
-6.11574538505098
17.94367058510953
3.5124636782392917
-1.037908127011856
0.1453482836502155
0.033512257696138234
-0.32203140247996914
2.1113617298258696
1.0918367791704533
0.7143021740897421
0.5849518485731457
0.5327239424930451
0.5070780229781544
0.4781901953453739
0.4415368869511114
0.3974117805671063
0.3477326855174284
0.29624639566453304
0.2449789202427649
0.19618313349197777
0.1508090029246115
0.10952048225670342
0.07261347350639627
0.04033345357912724
0.012569702993087514
-0.011155351329583927
-0.031081819755355778
-0.04752459062711525
-0.06081139786221086
-0.07154132509423838
-0.08001355261642573
-0.08658310712087387
-0.09151389784999572
-0.09520530149861804
-0.09785149337483807
-0.09967300325199606
-0.10081314043691415
-0.101463833129639
-0.10170958672120174
-0.10162686877438216
-0.10124796093657779
-0.10059290948863242
-0.0996482927435659
-0.09834303166584644
-0.09661228012447629
-0.0943427239496836
-0.0914262585374501
-0.0876322266843114
-0.08279843107413083
-0.07668844523080247
-0.06909527064199937
-0.059547317291032194
-0.04780290324996567
-0.033664973885461386
-0.016472751712206586
0.003910499114037455
0.027743081704729614
0.05530912053745667
0.08677693338047296
0.12203690492204565
0.16057613136083926
0.20168960504347883
0.24401350578082104
0.2859350888697381
0.3247869460039574
0.3576013700931733
0.37954715493406044
0.385248004924387
0.3706556219672113
0.330002390860523
0.26103410293990736
0.16510919313848782
0.06635078647404795
0.3151066787097508
0.33936277925756314
-0.1164641274921227
-0.1309118566744301
-0.10570544244128498
-0.11366535237417359
-0.12385496956467998
0.7178328075969806
0.8448250621505171
0.04691930011487257
0.469881628208018
0.40812474717935765
0.1669496075582875
0.0028975471754230805
-0.07395212630508963
-0.10007944145244949
-0.10519634428525602
-0.1038554859555614
-0.1023078075808475
-0.09843631749301195
-0.08460653283898288
-0.04068562454058317
0.30650981069106326
0.09488991775571538
0.05186250842975413
0.21730105434218916
0.43991741008699364
0.5280590909253347
-0.10168073739804107
-0.09715105264443273
-0.1023406554709995
-0.08372762102510657
-0.09659159909592319
-0.07320444395688415
-0.011171932718894035
-0.04893133638164628
0.1162785066333769
0.3207472807166039
0.40938443047305895
0.4908519705421501
0.13352109534942264
2.2490601200616225
2.527400928682866
0.31560108615767396
0.007244176733276543
-0.3187831354448736
0.4342894838820374
-0.10231092622108523
-0.0998169280640544
-0.10036161191588965
-0.09157790155478024
-0.08711259275202948
-0.06873062135340853
-0.04655457285695255
0.046334058929394885
0.2135102027840428
0.0406420504543356
-0.14344316639389582
-0.11680355787946992
-0.12342029435511406
-0.1061934669341708
0.9676272328610313
0.574782840196634
-0.031028869523731184
0.23799457140300057
0.1404995144514449
0.4503874092277705
0.22190937382063644
0.06523625353622062
-0.09857906644496715
0.38752322420554697
-0.030069434434408415
-0.41888398810740163
-0.1508136577813623
0.032554703942986776
0.2753749214095036
-0.10461616328969438
-0.10807518480278729
-0.10488149130466314
-0.11268902260609245
-0.10497213967851411
-0.1131059982185389
-0.08190653120131144
-0.07324263405403927
0.8361155033640602
0.6923071888276497
-0.20088340153446566
-0.09796264604997408
-0.1424951330113882
-0.2089131399848128
-0.11464430760698562
0.3216035002333997
0.3990826750053463
0.5432661528300614
0.5181516061359127
-0.30164007038487295
0.37625886709557593
0.4676878473958647
-0.10188407620136228
-0.10167070349686211
-0.10038421079555912
-0.09788440007489144
-0.10072930314616257
-0.09731626898273911
-0.08620622829729109
-0.0935053032094879
-0.0902327654914919
-0.07756313163718383
-0.07426981170367825
-0.05627397508185092
-0.024308275533484202
-0.056498592003426266
0.023020098190724838
0.08697762293821891
0.268906215862023
0.1706292235308036
-0.6191909294917705
-0.5147470841169149
2.329445225118862
1.9777754326562276
-0.011509735355363945
-0.23816940700230219
-0.12062838988452809
0.16690677657362135
-1.0217322041321295
0.26552628033287873
0.1801728004576987
0.03920614717657275
0.10148348527304014
0.3466251469721377
-0.008566668969855128
0.392091632569626
0.21860644186078404
0.3652351841192549
0.533823040232346
0.7124939981821424
0.4234154728675584
0.4972714401490315
0.3222716188816217
0.21880357136845996
0.1275221873149889
0.053812359521174274
-0.0016606519172529923
-0.04142765044564346
-0.06554031119323024
-0.041222420552532675
-0.08056138243522477
-0.06760899316182375
-0.08431587013587327
-0.09007820841112027
-0.0940310448606169
-0.09919241075173608
-0.09582606824290711
-0.09921886260678388
-0.10139610467727019
-0.1018440758057496
-0.10108332295891144
0.013962250849884613
0.1397994391224064
0.307602526357107
-0.2638912731573812
0.09725913339108741
0.6218180596335477
0.5337798651870705
2.903995377801672
2.1556482072658745
0.38564602074543636
0.43159595953575
0.4734073822376515
0.005161758004362545
0.30623706254320016
-0.0244103848975244
-0.28101069591497235
0.5921227818732787
0.5085895250222195
0.0755262931615729
-0.10322296887731129
-0.10472893921779575
-0.10082993819186245
-0.10385718316140966
-0.09299651549748976
-0.08998797085806984
-0.07147385155956741
-0.041828838957407515
0.3101615018917712
0.03413599037442573
1.2523254612617878
1.4785748227905309
0.2651621003446971
0.09036934035609911
0.1803309547058466
0.4136173790001886
-0.10537196689889382
-0.1043347552859201
-0.11016426596226732
-0.10444550632402641
-0.11200116001573557
-0.09772746947776857
-0.09915262606974443
-0.028490043251692333
0.14423106337711925
5.598342302591996
5.4033310216291035
-0.012855761299800815
2.097569030710847
0.48885287031242114
-0.10265928973091909
-0.10312383634480443
-0.10135194605798076
0.4019968996810479
-0.0998380553847845
-0.10270297647368173
-0.1010056688839539
-0.09587048404946505
-0.09124247914476133
-0.09487819303128263
-0.08672286982800735
-0.07944071603574047
-0.06713690872751395
-0.06531830849045094
-0.04228617850093025
0.010999425356935277
0.48867830817112745
0.06039491839182867
0.16287202191328165
0.24370900185569783
-0.06902117037216475
0.22262509022680407
0.06938332803352812
0.14914127614685088
-0.1098502824303822
-0.1682993784668658
0.15224910600440797
0.38217091777789236
0.3751898652401942
-0.08900149604137332
0.03241088177723886
0.4400053669957729
0.5321896093696784
-0.13409298090488883
0.4668976837182451
0.011219789281209553
-0.5101373601019705
0.34085160636949685
1.0203185730901696
0.927159851839105
0.3733238666502823
-0.02622250183074531
-0.17256911002193287
-0.052967204205356555
-0.16617295466227647
0.11856080318475967
1.24821182624239
0.5729328676154019
-1.2167721124874684

SCALARS Vx_analytic double
LOOKUP_TABLE default
4.10027659139583
-10.327730795436157
-14.268649563397805
0.13210637964528643
4.4925154264696
-2.6837945533076812
-4.473557660634656
3.5422922230915934
1.0314781535196733
20.842645460337327
-8.188675201154123
-0.40947252232514136
-0.8985275653939194
-0.23421395942757367
-0.11369097867133887
-0.030612111190207455
-0.1111690093241828
-0.18643504131187724
-0.656989280026568
-0.6110339256923671
-6.11574538505098
17.94367058510953
3.5132646958975986
-1.0157705221643427
0.1475555398778579
0.03451969899758795
-0.3200761990902713
2.1113617298258696
1.0918367791704533
0.7143021740897421
0.5849518485731457
0.5327239424930451
0.5070780229781544
0.4781901953453739
0.4415368869511114
0.3974117805671063
0.3477326855174284
0.29624639566453304
0.2449789202427649
0.19618313349197777
0.1508090029246115
0.10952048225670342
0.07261347350639627
0.04033345357912724
0.012569702993087514
-0.011155351329583927
-0.031081819755355778
-0.04752459062711525
-0.06081139786221086
-0.07154132509423838
-0.08001355261642573
-0.08658310712087387
-0.09151389784999572
-0.09520530149861804
-0.09785149337483807
-0.09967300325199606
-0.10081314043691415
-0.101463833129639
-0.10170958672120174
-0.10162686877438216
-0.10124782765055065
-0.1005929420419473
-0.09964845504938075
-0.09834350190109997
-0.09661312131879514
-0.09434451871860619
-0.0914286187045851
-0.08763597043768875
-0.08280334278890703
-0.07669661379637627
-0.06910496134825242
-0.05956144851390827
-0.047822987540056275
-0.033672460396417574
-0.01648539145237796
0.003888409509779771
0.027721518384714827
0.055297474114430194
0.08676827989982781
0.12202034388196553
0.16057453055739573
0.2017095464310393
0.24406643450332088
0.286001583800664
0.3248965446907772
0.3577128693745183
0.37972785692921573
0.3856007159068158
0.3710283160670911
0.33040741310234367
0.26136830543634043
0.165351850605765
0.06630766750189376
0.3072890282179711
0.3371706145209303
-0.11573714656013658
-0.13079943948013226
-0.10570535512391459
-0.11372780229948178
-0.12456353024137251
0.7269997387825725
0.8347617254271533
0.04600727050654023
0.4679910115474847
0.41050734696060975
0.1669214628910026
0.003136668823903761
-0.07378379845270856
-0.10001567391903499
-0.10518127231499257
-0.10385296486822176
-0.10231052803076594
-0.09846832164148614
-0.08473012843988369
-0.04101671792383423
0.30863173663676136
0.10164156815119667
0.05153787112986343
0.21754434337179088
0.4422804079350258
0.5270414712544252
-0.10168036655234536
-0.09715932322659948
-0.10233728464411687
-0.08377000668667385
-0.0965755624829846
-0.07315791420022119
-0.011102327663138433
-0.04907507932942271
0.11625277765605088
0.32025822989123026
0.4115959586539699
0.4921555331208931
0.133406771815819
2.256243746621573
2.465884214837719
0.31620104478255145
0.007045941752141026
-0.31995283261096524
0.43353010341349646
-0.10230954769970206
-0.09981884026471985
-0.10035371804727579
-0.09159326976904274
-0.08708221543359848
-0.06878611534530389
-0.04648330343857957
0.04641118694696
0.2133888545922085
0.04151052174497487
-0.14299730792784274
-0.11677288635863964
-0.1237611951098498
-0.1062044599440852
0.8926160215206085
0.5831067609988776
-0.03178275469460944
0.23793720672139693
0.14188665745971815
0.45922610610679426
0.22203848098082127
0.06507796699727944
-0.09857956794858821
0.3884750777202538
-0.030156942438429313
-0.4175139088450264
-0.1508969166740752
0.03283307489491411
0.2746372744133566
-0.10461649295414852
-0.10806434632249225
-0.1049061019315648
-0.11263371909575634
-0.10508948353649633
-0.11291175052287525
-0.08229300621659992
-0.07287632478518836
0.8282370826629211
0.6979119990900522
-0.20066822435963574
-0.09797116703088914
-0.1424348295531269
-0.2098549195346695
-0.11468425977836347
0.3229199860491967
0.40046616035990723
0.5455847679292031
0.5182087427677853
-0.3007930965710694
0.37596233365094456
0.4672919894446968
-0.10188333045339129
-0.10167020731103049
-0.10038502890796379
-0.09788823854675488
-0.10072764797374112
-0.09731253721591394
-0.08622901541256406
-0.09351735548255012
-0.09022641066298906
-0.07755275575139371
-0.0743203942040423
-0.056350997444097085
-0.0242973512351208
-0.056487919477044776
0.023012124120603723
0.08694559797827818
0.268731830337803
0.17053225418634851
-0.6002055555256569
-0.5404004018209251
2.332489161030604
1.995213323703305
-0.01425735825522207
-0.23526584133959763
-0.12196078555212074
0.16889580909642551
-1.0064285288162895
0.26576571577976166
0.18013718698293968
0.03905086594865347
0.10135564260066651
0.3473621975745081
-0.008684319444192002
0.3932823963532501
0.2197150068117874
0.3663367858564197
0.5347506766809518
0.7167242441776815
0.4231117937816528
0.497053990184202
0.32210796456543433
0.2187517832969921
0.12751921381715006
0.0538439320162446
-0.0016322894206649563
-0.04151191155064502
-0.06558852477115049
-0.041193178599957615
-0.08058918605330667
-0.06759113277234996
-0.08430334731522061
-0.09009150162918364
-0.0940248919107326
-0.09918920923254874
-0.09583184572164866
-0.09922064608284893
-0.1013949096551041
-0.10184361020515109
-0.10108341549804611
0.013839356920073462
0.13970756573244228
0.3079784830519101
-0.26982869697735834
0.09687450540465097
0.6181302600909628
0.5377275131524949
2.8036412452533073
1.988321001378345
0.38716987918866047
0.42802012396653005
0.47752159428389207
0.004780602870163096
0.30695853228080305
-0.024649601427366347
-0.28242466287450796
0.5891893005315384
0.5124021151991495
0.07569952319076023
-0.10322246035633757
-0.10472312727565798
-0.10084273201007204
-0.10382419512380767
-0.09306743180288196
-0.08988417115473131
-0.07166214313221005
-0.04160908275382702
0.30944238264525653
0.03395512403854416
1.2650001535191344
1.4602339633012131
0.26559395215650583
0.09019050064835533
0.1803862359396111
0.41485591046486897
-0.1053689623544767
-0.10433930005249799
-0.11013665881849453
-0.10448760294827643
-0.11189194719586837
-0.09790551172982272
-0.0988342332162915
-0.02803120503626001
0.14415472576217467
5.320999423523984
5.209113620693741
-0.012093327463739038
2.0940044611021023
0.4859303617038443
-0.10265782145731168
-0.10312143453262423
-0.10135356154035599
0.40109114383529204
-0.09984342184098143
-0.10269515363957914
-0.10099102635381314
-0.09589104254706102
-0.0912752761062492
-0.09484443757977584
-0.0866706052109255
-0.07952305266772496
-0.067248610350583
-0.0652269617043623
-0.04217311602229165
0.011130154359655076
0.48724962629618607
0.06049584216775612
0.16281780513829863
0.24343739591994545
-0.06948058667620058
0.2226634354175804
0.06925833770225777