# vtk DataFile Version 1.0
2D Simulation C++
ASCII
DATASET UNSTRUCTURED_GRID
FIELD FieldData 1
NODES 1 2 int
348 601

POINTS 348 double
0.0 0.5 0.0
0.0 1.0 0.0
2.0 1.0 0.0
2.0 0.5 0.0
0.0 0.528801679611206 0.0
0.0 0.564507782459259 0.0
0.0 0.6110168099403381 0.0
0.0 0.6721802353858948 0.0
0.0 0.7528436183929443 0.0
0.0 0.8593378663063049 0.0
0.16666941344738007 1.0 0.0
0.3333356976509094 1.0 0.0
0.5000020265579224 1.0 0.0
0.6666678786277771 1.0 0.0
0.8333337306976318 1.0 0.0
1.0 1.0 0.0
1.1666662693023682 1.0 0.0
1.3333321809768677 1.0 0.0
1.4999979734420776 1.0 0.0
1.6666642427444458 1.0 0.0
1.8333306312561035 1.0 0.0
2.0 0.8593378663063049 0.0
2.0 0.7528436183929443 0.0
2.0 0.6721802353858948 0.0
2.0 0.6110168099403381 0.0
2.0 0.564507782459259 0.0
2.0 0.528801679611206 0.0
0.029850948601961136 0.5 0.0
0.05970168858766556 0.5 0.0
0.08955242484807968 0.5 0.0
0.1194031685590744 0.5 0.0
0.14925390481948853 0.5 0.0
0.17910465598106384 0.5 0.0
0.20895539224147797 0.5 0.0
0.2388061285018921 0.5 0.0
0.2686568796634674 0.5 0.0
0.29850760102272034 0.5 0.0
0.32835835218429565 0.5 0.0
0.35820910334587097 0.5 0.0
0.3880598247051239 0.5 0.0
0.4179105758666992 0.5 0.0
0.44776129722595215 0.5 0.0
0.47761204838752747 0.5 0.0
0.5074627995491028 0.5 0.0
0.5373135209083557 0.5 0.0
0.5671642422676086 0.5 0.0
0.5970150232315063 0.5 0.0
0.6268657445907593 0.5 0.0
0.6567164659500122 0.5 0.0
0.6865672469139099 0.5 0.0
0.7164179682731628 0.5 0.0
0.7462686896324158 0.5 0.0
0.7761194705963135 0.5 0.0
0.8059701919555664 0.5 0.0
0.8358209133148193 0.5 0.0
0.865671694278717 0.5 0.0
0.89552241563797 0.5 0.0
0.9253731369972229 0.5 0.0
0.9552239179611206 0.5 0.0
0.9850746393203735 0.5 0.0
1.0149253606796265 0.5 0.0
1.0447760820388794 0.5 0.0
1.0746268033981323 0.5 0.0
1.1044776439666748 0.5 0.0
1.1343283653259277 0.5 0.0
1.1641790866851807 0.5 0.0
1.1940298080444336 0.5 0.0
1.2238805294036865 0.5 0.0
1.2537312507629395 0.5 0.0
1.2835819721221924 0.5 0.0
1.3134328126907349 0.5 0.0
1.3432835340499878 0.5 0.0
1.3731342554092407 0.5 0.0
1.4029849767684937 0.5 0.0
1.4328356981277466 0.5 0.0
1.4626864194869995 0.5 0.0
1.492537260055542 0.5 0.0
1.522387981414795 0.5 0.0
1.5522387027740479 0.5 0.0
1.5820894241333008 0.5 0.0
1.6119401454925537 0.5 0.0
1.6417908668518066 0.5 0.0
1.6716417074203491 0.5 0.0
1.701492428779602 0.5 0.0
1.731343150138855 0.5 0.0
1.761193871498108 0.5 0.0
1.7910445928573608 0.5 0.0
1.8208953142166138 0.5 0.0
1.8507460355758667 0.5 0.0
1.8805968761444092 0.5 0.0
1.910447597503662 0.5 0.0
1.940298318862915 0.5 0.0
1.970149040222168 0.5 0.0
1.7358819246292114 0.7499510645866394 0.0
0.2656642198562622 0.7486277222633362 0.0
0.49981194734573364 0.737183690071106 0.0
0.74151611328125 0.7359843254089355 0.0
0.9774143695831299 0.7371892929077148 0.0
1.201690912246704 0.7367381453514099 0.0
1.447761058807373 0.7383390665054321 0.0
1.8591958284378052 0.6421071290969849 0.0
0.14080412685871124 0.6421071290969849 0.0
1.588537573814392 0.6783608794212341 0.0
0.2553686201572418 0.6221352219581604 0.0
1.7466964721679688 0.6278358101844788 0.0
0.38199201226234436 0.6273008584976196 0.0
0.5013589859008789 0.6272794008255005 0.0
0.6207823157310486 0.6272526383399963 0.0
0.7401852607727051 0.627252459526062 0.0
0.8595882654190063 0.6272523999214172 0.0
0.9701492786407471 0.6212864518165588 0.0
1.0807102918624878 0.6272523999214172 0.0
1.2001131772994995 0.6272523999214172 0.0
1.3195161819458008 0.6272523999214172 0.0
1.4488563537597656 0.6310953497886658 0.0
1.9247323274612427 0.5706554055213928 0.0
0.07526770234107971 0.5706554055213928 0.0
1.5377081632614136 0.5910930037498474 0.0
1.6566967964172363 0.5934624075889587 0.0
1.8074009418487549 0.5708622932434082 0.0
0.1940300166606903 0.5737577676773071 0.0
1.0286364555358887 0.5665481686592102 0.0
1.14803946018219 0.5665481686592102 0.0
0.9116620421409607 0.5665481686592102 0.0
1.2674424648284912 0.5665481686592102 0.0
0.7922590970993042 0.5665481686592102 0.0
0.6728560328483582 0.5665482878684998 0.0
0.5534531474113464 0.5665481686592102 0.0
1.3892061710357666 0.5727682709693909 0.0
0.43402159214019775 0.5665869116783142 0.0
0.3146642744541168 0.5667200088500977 0.0
1.8656742572784424 0.5607567429542542 0.0
0.1343258023262024 0.5607567429542542 0.0
1.5970147848129272 0.5642029047012329 0.0
1.8783670663833618 0.7786769866943359 0.0
0.12163297086954117 0.7786769866943359 0.0
1.7164177894592285 0.562579333782196 0.0
1.4776118993759155 0.5620538592338562 0.0
1.5857784748077393 0.867691159248352 0.0
0.25373148918151855 0.5588531494140625 0.0
0.9701492786407471 0.5582930445671082 0.0
1.0895521640777588 0.5582930445671082 0.0
0.8507462739944458 0.5582930445671082 0.0
1.20895516872406 0.5582930445671082 0.0
0.7313433289527893 0.5582930445671082 0.0
1.3283581733703613 0.5582930445671082 0.0
0.6119403839111328 0.5582930445671082 0.0
0.49253740906715393 0.5582930445671082 0.0
0.37313446402549744 0.5582956075668335 0.0
0.36864349246025085 0.7376502752304077 0.0
0.602456271648407 0.7355343103408813 0.0
0.8441241383552551 0.7366551756858826 0.0
1.3355978727340698 0.7366551160812378 0.0
1.0895521640777588 0.7378703355789185 0.0
0.07051979005336761 0.6486480832099915 0.0
1.9294801950454712 0.6486480832099915 0.0
1.5086064338684082 0.6743985414505005 0.0
1.6785967350006104 0.6649783849716187 0.0
1.9543375968933105 0.5452249050140381 0.0
0.04566239193081856 0.5452249050140381 0.0
1.6567095518112183 0.5496091842651367 0.0
1.53738272190094 0.5491842031478882 0.0
0.91306072473526 0.8965699672698975 0.0
1.7782752513885498 0.5446287989616394 0.0
1.4163299798965454 0.5447981357574463 0.0
0.4287482798099518 0.8945969939231873 0.0
1.2610714435577393 0.8950135707855225 0.0
0.4313095211982727 0.6832783222198486 0.0
0.31561949849128723 0.6858259439468384 0.0
1.029850721359253 0.6781684160232544 0.0
0.9082015752792358 0.6848641633987427 0.0
1.1492537260055542 0.6781684160232544 0.0
0.7886138558387756 0.678956151008606 0.0
1.2709345817565918 0.684736430644989 0.0
0.6685023903846741 0.6868807673454285 0.0
1.4007169008255005 0.6702371835708618 0.0
0.5483440160751343 0.6792802214622498 0.0
0.19808045029640198 0.6887137293815613 0.0
1.797759771347046 0.6853783130645752 0.0
0.6811949610710144 0.8757594227790833 0.0
1.0189321041107178 0.8474968671798706 0.0
0.7922950983047485 0.8446238040924072 0.0
1.3765455484390259 0.8590760827064514 0.0
1.1571698188781738 0.8478953838348389 0.0
1.8954496383666992 0.5359624624252319 0.0
1.8360060453414917 0.5359931588172913 0.0
0.10455036163330078 0.5359624624252319 0.0
0.16417928040027618 0.5353734493255615 0.0
0.5530290007591248 0.8422092199325562 0.0
0.2832632064819336 0.5367912650108337 0.0
0.22469767928123474 0.5394234657287598 0.0
0.9405550956726074 0.5357381105422974 0.0
0.9997434020042419 0.5357381105422974 0.0
1.0600273609161377 0.5365630984306335 0.0
1.1191463470458984 0.5357381105422974 0.0
0.8802711367607117 0.5365630984306335 0.0
0.8211521506309509 0.5357381105422974 0.0
1.2385493516921997 0.5357381105422974 0.0
1.179430365562439 0.5365630984306335 0.0
0.7608681321144104 0.5365630984306335 0.0
0.7017492055892944 0.5357381105422974 0.0
1.2988333702087402 0.5365630984306335 0.0
1.357560396194458 0.5390686392784119 0.0
0.5823462605476379 0.5357381105422974 0.0
0.6414651870727539 0.5365630984306335 0.0
0.5220622420310974 0.5365630984306335 0.0
0.4629422128200531 0.535739541053772 0.0
0.3435409665107727 0.5357455015182495 0.0
0.4026572108268738 0.5365669131278992 0.0
0.21006634831428528 0.8590372204780579 0.0
1.7943172454833984 0.8627070188522339 0.0
0.06134982034564018 0.7191494703292847 0.0
1.938650131225586 0.7191494703292847 0.0
1.634666085243225 0.7584379315376282 0.0
0.3355695903301239 0.8387951850891113 0.0
1.537941336631775 0.7633647918701172 0.0
1.9670078754425049 0.574067234992981 0.0
0.032992132008075714 0.574067234992981 0.0
1.6862140893936157 0.5314788222312927 0.0
1.6272135972976685 0.5317342281341553 0.0
1.5077245235443115 0.5309156775474548 0.0
1.5668202638626099 0.5316618084907532 0.0
1.7466963529586792 0.5298213958740234 0.0
1.4473658800125122 0.5297333002090454 0.0
1.804386019706726 0.5275400876998901 0.0
1.9283779859542847 0.5282225012779236 0.0
1.8656879663467407 0.5267112255096436 0.0
0.13432854413986206 0.5271331071853638 0.0
0.07162196189165115 0.5282225012779236 0.0
0.25373148918151855 0.527070939540863 0.0
0.19419340789318085 0.5297109484672546 0.0
0.31349387764930725 0.5272363424301147 0.0
0.37313446402549744 0.5270199179649353 0.0
0.4329495429992676 0.5274069309234619 0.0
0.49253740906715393 0.5270196795463562 0.0
0.5523557066917419 0.5274024605751038 0.0
1.3898069858551025 0.5277745127677917 0.0
1.3283581733703613 0.5270196795463562 0.0
0.6119403839111328 0.5270196795463562 0.0
1.2685397863388062 0.5274024605751038 0.0
0.6717586517333984 0.5274024605751038 0.0
0.7313433289527893 0.5270196795463562 0.0
1.20895516872406 0.5270196795463562 0.0
0.7911616563796997 0.5274024605751038 0.0
0.8507462739944458 0.5270196795463562 0.0
1.1491369009017944 0.5274024605751038 0.0
1.0895521640777588 0.5270196795463562 0.0
0.9105646014213562 0.5274024605751038 0.0
0.9701492786407471 0.5270196795463562 0.0
1.0297338962554932 0.5274024605751038 0.0
1.4776118993759155 0.5259945392608643 0.0
1.597015619277954 0.5255197882652283 0.0
1.7164177894592285 0.525999903678894 0.0
1.6834615468978882 0.8477573990821838 0.0
1.5822722911834717 0.6086509227752686 0.0
0.20459823310375214 0.6270732283592224 0.0
1.8037469387054443 0.6209055185317993 0.0
0.09990309923887253 0.8589919805526733 0.0
1.9000968933105469 0.8589919805526733 0.0
1.75603187084198 0.5789161324501038 0.0
0.10896337777376175 0.5982794761657715 0.0
1.8910366296768188 0.5982794761657715 0.0
1.4950518608093262 0.605266273021698 0.0
1.7049394845962524 0.6007562279701233 0.0
1.4387125968933105 0.5775743722915649 0.0
1.489302158355713 0.851039469242096 0.0
0.15732239186763763 0.5961292386054993 0.0
1.8436260223388672 0.5944437384605408 0.0
0.4399496018886566 0.6259797215461731 0.0
1.022565245628357 0.6257523894309998 0.0
[...]
POINT_DATA 348
SCALARS Psi double
LOOKUP_TABLE default
1.087898540876299
1.0
1.0
1.0766685901942148
1.087788072164192
1.0875451747595088
1.0891468689430583
1.09387285807773
1.1033511142230832
1.1418217671709743
1.0
1.0
1.0
1.0
1.0
1.0
1.0
1.0
1.0
1.0
1.0
1.1342685740735372
1.094275187596824
1.084475126283944
1.0798820188101446
1.0777146702093021
1.0768591743096931
1.0879813559628229
1.0867119431599086
1.084822378708172
1.0824208803385376
1.079479899249739
1.076023846671457
1.072121984213728
1.0678674176159713
1.0633835992995984
1.0587586310431667
1.054092233933663
1.049463236918183
1.044956731450081
1.04062462224904
1.0364946738515872
1.0325998886569008
1.0289675743777031
1.0256112503550927
1.0225187149373216
1.0196948467275229
1.0171385594867968
1.014845248943381
1.012790988306448
1.0109691987893186
1.0093696056944061
1.0079830718937326
1.0067892150319218
1.0057808444749181
1.0049498794819822
1.004289485842755
1.0037871521611226
1.003438789365393
1.0032416904143877
1.0031939342310825
1.0032919353994094
1.0035351137351385
1.0039290506137686
1.004476685717625
1.005181241224292
1.0060466842131517
1.0070863892967705
1.0083066957513038
1.0097148790678285
1.0113166543982182
1.0131349309091258
1.0151744198735837
1.0174313148406817
1.0199350063882668
1.0226768038428304
1.0256557971296865
1.028872491595984
1.0323243284800299
1.035990633424902
1.0398397666127077
1.0438340581406576
1.0479257365858545
1.0520544905881648
1.056144083718227
1.060107422540961
1.063838328774438
1.0672403590249573
1.070204897571296
1.072629325460893
1.0744757755684937
1.0757492516472
1.0764614662559158
1.0467867963849216
1.0518855662518498
1.0201201111372908
1.0058088910750327
1.0016733636068291
1.0036441962260136
1.0139161397068843
1.0733683686465625
1.082112817305839
1.0311076209435976
1.0635344240687474
1.056689748922829
1.042553177864564
1.026824396759596
1.0156246740194335
1.0084501473808407
1.0043637652270778
1.002846212083269
1.0030425416998043
1.0054014750573632
1.010299184589358
1.0190459748393201
1.0762817171924073
1.0856766135773046
1.029251590127075
1.0445297013466162
1.0659085345205797
1.0740342906007647
1.0030695286117453
1.0045816017483244
1.0038193960723603
1.0086121106638815
1.0070319995102157
1.0132388391226719
1.023204488136649
1.0157544253042339
1.0374862495785269
1.0554785746550133
1.0719809611824336
1.0811617216104157
1.0372071885706977
1.0782439350921904
1.08635805542776
1.0536729913854632
1.0235737643880114
1.0130769094150522
1.065254736368257
1.0031975265231805
1.0035803516287334
1.0051662000111612
1.006343140451104
1.0098482094555181
1.0118736497910932
1.0179117898730317
1.030095016587951
1.0464796817251072
1.035694875672643
1.0123548154491022
1.0031390062777181
1.0079929515035206
1.0019377836454921
1.0902639138206396
1.08078441879993
1.0226370043130846
1.0445799415427763
1.076648773602221
1.0869298410691357
1.0454995584024074
1.0301806663630286
1.000432539548831
1.0622235550227825
1.0182596425407835
1.0105238941446546
1.0014802422907148
1.032130220520537
1.0494027635962997
1.0022870493983107
1.0028329297346055
1.0035490972821455
1.005618810852317
1.0068378133093279
1.0105847745000123
1.0140172268588354
1.0195848542533112
1.071695990921358
1.0635403104044787
1.003369157009733
1.0005516422494156
1.001909260493027
1.0044738649153016
1.0011771840519916
1.073882807177343
1.068932809213541
1.083705929217531
1.0778578712126314
1.0080519195063085
1.060955809174178
1.0698225817229754
1.0035453930948113
1.003157383173248
1.003351914892994
1.0041288165740982
1.0045484766913035
1.006184867903425
1.0075853810859134
1.0055374663105006
1.0085725688526155
1.011722479252369
1.010403712267935
1.0139273828876625
1.020873513551112
1.0158337949180742
1.0270746013529415
1.0342524295462987
1.051505608022018
1.042562298360934
1.039556726714143
1.0362112597048534
1.0980436372695694
1.0884748423636021
1.0302227320669262
1.0266177906043794
1.0193765724908699
1.0777982965363124
1.0869961477169392
1.0498146854150299
1.0417083241053722
1.0271156183625487
1.0339265235548831
1.0581501129491555
1.021128109389302
1.0654243315098113
1.0754786966695216
1.0715897901460387
1.0810292504516061
1.0859076841870308
1.0655605512808912
1.0740718897084025
1.0562844577388448
1.0470325691477025
1.038362897013732
1.030604752621337
1.0238984019531634
1.016320835523126
1.0121239193355076
1.018279615317111
1.008927933482363
1.0137010704318208
1.0100780018139581
1.0065008293606756
1.0073107330348694
1.0053054401448618
1.0047737679952695
1.0036847814237557
1.003987890658658
1.0032953671261111
1.0032001749967012
1.0240376576331225
1.037782945988977
1.054027845547057
1.0247321694882627
1.0340239452152897
1.0720978877407978
1.0654176077144102
1.0766799050396636
1.0694555944768418
1.0590428619857857
1.0841870750962894
1.0751057162167674
1.0242343259768243
1.05123999141686
1.0196473512067474
1.009132057186832
1.0790606127836364
1.0704033685775984
1.034444214491272
1.002702192219024
1.0033120250413339
1.0039837366859279
1.0061446391150835
1.0075907120433867
1.0117383327691478
1.01319708613264
1.0208951008176719
1.0530713967892507
1.0269047203617656
1.076945700197694
1.0853522533040147
1.0490329059338481
1.0329783246382835
1.0415771224867327
1.053151188712793
1.0023833900351033
1.002669668022184
1.003942236134478
1.0050222986476425
1.0079150750704045
1.0097443858667028
1.014474439711042
1.0255110321712246
1.0411380113390603
1.1079720641382784
1.0992860542269522
1.0766663605081976
1.0879554368264093
1.060763163519668
1.0029739444748014
1.0032520297636152
1.0031711113722264
1.0612210636777815
1.003753150264914
1.0043774665996392
1.0056007803640516
1.0053646988663079
1.0069012682564926
1.008345075988824
1.0107084641919812
1.0101587073178406
1.0127994068333486
1.0154623990956881
1.0192797446084403
1.0265468132313513
1.0680750094670972
1.032071895646908
1.042010279416339
1.0488856525810313
1.017436499901542
1.0457875317377923
1.0304820938097472
1.0386473535255927
1.0014572068226937
1.0217584026796922
1.0389661171351028
1.0837778668905227
1.074404789032115
1.0002569518710016
1.0282064474441277
1.0692430018639654
1.0781094365442359
1.0039403542026657
1.0875215746423508
1.0771332256927295
1.0872137044257872
1.0783252259933367
1.0690639279124083
1.0624279169003226
1.0620061753880035
1.0185978518489476
1.0010538321045266
1.0163456072260537
1.0065918424240134
1.0761909584135956
1.0872105568222474
1.0528187287126638
1.0469711025597932

SCALARS Omega double
LOOKUP_TABLE default
4.100274781117875
-10.327732758619275
-14.268653622919196
0.1321779784989353
4.492515037378603
-2.683796696850904
-4.4735592964192135
3.5422911810597237
1.0314782891560756
20.842645563025947
-8.188677294410676
-0.40947569707158027
-0.8985329206386236
-0.2342224532514922
-0.11370122149152197
-0.030622973694939864
-0.11117851892118809
-0.1864431826905922
-0.6569952498432582
-0.611037682902762
-6.115748166873882
17.9436687287805
3.51246391245618
-1.037908033662514
0.14534913851876455
0.033512028732960344
-0.32202970727321134
2.111360507852823
1.0918357156493723
0.7143012927675584
0.5849512108744598
0.5327235982656072
0.5070780151880312
0.47819056576242364
0.44153767219740103
0.39741302031591663
0.34773441394004917
0.296248642753791
0.24498170970136518
0.19618649060494778
0.15081294425676328
0.10952501764894516
0.07261860527962002
0.040339185983402505
0.012576030827119377
-0.011148441866087183
-0.031074349526414843
-0.047516576832432
-0.06080286613793261
-0.07153231032514959
-0.08000409470406813
-0.08657324013274616
-0.09150366233932798
-0.09519474800248356
-0.097840674999057
-0.09966196549841433
-0.10080193228733854
-0.10145251276674423
-0.10169821187334256
-0.1016154877648035
-0.10123662042528445
-0.10058166398642936
-0.09963719774912089
-0.09833213193022931
-0.09660161623433698
-0.0943323431781226
-0.09141620535809006
-0.08762253407165603
-0.08278912537208839
-0.076679558169751
-0.06908682937562544
-0.0595393360560645
-0.047795389734766304
-0.033657954060233954
-0.016466217341664424
0.003916548615767211
0.027748646424464726
0.055314209472576474
0.0867815598056074
0.12204108732371396
0.16057988795066547
0.20169295828490175
0.24401648107250587
0.2859377153674327
0.3247892525684751
0.35760338558835575
0.3795489076117587
0.3852495283506056
0.37065694124298254
0.3300035314780571
0.26103508849777735
0.16511003403644667
0.06635136871884464
0.3151058002572242
0.339361783425133
-0.11646353102809062
-0.13090986205230892
-0.10570305389757997
-0.11366353411914935
-0.12385453203936757
0.7178333140189355
0.8448243763860914
0.04692075557630205
0.46988207358670553
0.4081259586945318
0.16695171440133763
0.0029015091481823414
-0.07394635888407523
-0.10007220955221828
-0.10518816673236246
-0.10384678895434112
-0.10229962806348651
-0.0984290116368824
-0.08460053748868089
-0.040681385080795954
0.3065105939114213
0.09488885289251957
0.05186651291890895
0.21730355680302083
0.43991879131912415
0.5280591275597462
-0.10167026837352013
-0.09714130887232482
-0.1023302072089312
-0.08371922254215525
-0.09658195280571225
-0.07319631308956513
-0.01116582176452809
-0.048924805164526144
0.11628237869123305
0.32074903981287567
0.4093855177789097
0.49085141834186785
0.1335246953264928
2.2490589657385853
2.5273997940030846
0.3156032880577958
0.007249532953547339
-0.31878668099999846
0.43429034551715356
-0.102300223953476
-0.09980659087180212
-0.10035132810000005
-0.09156864199839689
-0.08710351090639835
-0.06872294748230905
-0.04654731542558304
0.04633911824461808
0.2135130186960532
0.040641751221666175
-0.14344188141814812
-0.11680127598926615
-0.12341921743077158
-0.10619131728736926
0.967626221051194
0.5747831817495598
-0.03102659589945731
0.23799565517515192
0.14050025524752394
0.450386201643725
0.22191234267707247
0.06524085438896807
-0.09858607375146476
0.38752497214135995
-0.030062909041863525
-0.41888750527473123
-0.15081983361200835
0.03255629816113379
0.2753752106704694
-0.10461029622109078
-0.10806964792495131
-0.10487614198043374
-0.11268370003011864
-0.10496802142840918
-0.11310197184287991
-0.08190303351744284
-0.07323956876633365
0.8361148975803757
0.6923073330565723
-0.2008884578478697
-0.09796722177825383
-0.14249929677005096
-0.20891766473747234
-0.11464879490038438
0.32160451845902116
0.3990840343622815
0.5432653666447433
0.5181513997139309
-0.3016432638678907
0.37626028036046505
0.4676883804815384
-0.10187294682709387
-0.10165956498205093
-0.10037327195886461
-0.09787383044280416
-0.10071840741235485
-0.09730578768661363
-0.08619692344006163
-0.09349530692903014
-0.09022292456804332
-0.07755407537858444
-0.07426134697563593
-0.05626643070149662
-0.024301232500742204
-0.05649050132287867
0.023025981888988453
0.08698234591225504
0.26890865908821987
0.1706327648637143
-0.6191930396977929
-0.5147496341980397
2.329444470837582
1.9777752533379698
-0.01151060471170329
-0.2381717039159262
-0.120629175024808
0.16690731724520935
-1.0217336658499938
0.2655290121187871
0.18017626531657535
0.039211366953286315
0.10148779787183973
0.34662725058256516
-0.008560471294197645
0.39209324182354993
0.21860732317001103
0.36523638103187994
0.5338225312439424
0.7124929815530191
0.4234164472862248
0.4972715944001801
0.3222735606246786
0.2188065836222811
0.12752635646465119
0.053817705840734
-0.00165412655792625
-0.04142051853647381
-0.06553222525736663
-0.041214788297354824
-0.08055241285052579
-0.06760033592042314
-0.08430633816903904
-0.0900684743154376
-0.09402078410229654
-0.09918162705050446
-0.09581568573956598
-0.09920801367495331
-0.10138498525907899
-0.10183284886105728
-0.10107217691348318
0.013967972271926603
0.13980334336504988
0.3076049413343816
-0.26389398592718044
0.09726224995528329
0.6218179372139304
0.5337808188575175
2.9039939626664726
2.155645969601884
0.38564772330357433
0.4315951332425013
0.4734081494587434
0.005166068884664151
0.3062389773020665
-0.024404694054690243
-0.2810142669664212
0.5921223647478906
0.5085905154467528
0.07552932521849305
-0.10321448235921805
-0.10472044691830565
-0.10082205316755015
-0.1038493303180377
-0.0929897679536196
-0.08998136517503535
-0.07146831120027512
-0.04182391165055722
0.31016263798653976
0.03414075105338316
1.2523252932223192
1.4785739294670777
0.265164595970327
0.0903733209304608
0.1803340782930619
0.41361777972523756
-0.10536579918067121
-0.1043291216408559
-0.1101585956706506
-0.1044405102033096
-0.1119961597603538
-0.09772354126077742
-0.09914882363534526
-0.02848758028431989
0.14423210092190059
5.598341689394198
5.4033299823633625
-0.01285491894627788
2.097567956548363
0.48885283707655974
-0.10264928323856179
-0.10311392790060421
-0.10134223857378333
0.4019979285590221
-0.09982856370538278
-0.10269329356273044
-0.10099622816717023
-0.09586167442401573
-0.09123411942362554
-0.09486949759456427
-0.08671468533492262
-0.07943332978532068
-0.06713011861389041
-0.06531122361242299
-0.042279798974202476
0.011004491617351224
0.48867875661368465
0.06039918738681028
0.16287496128299478
0.24371122068524764
-0.06901851811130472
0.2226282072062668
0.06938812588947685
0.14914353082170825
-0.10985140273883505
-0.1683006863603486
0.15225204155518413
0.38217010001128504
0.37519078351310703
-0.08900942507550845
0.032413870494828426
0.4400065845028997
0.5321893231121604
-0.13409449399242712
0.46689636261431
0.011220444128652965
-0.5101385747690281
0.3408522298986366
1.0203174550383751
0.9271589753263341
0.37332572300986755
-0.026215783512814908
-0.17257659806699902
-0.052961983551225306
-0.16617385620638286
0.11856159944495491
1.2482107119762984
0.5729313969227159
-1.216775116190755

SCALARS Vx_analytic double
LOOKUP_TABLE default
4.100274781117875
-10.327732758619275
-14.268653622919196
0.13210578914358403
4.492515037378603
-2.683796696850904
-4.4735592964192135
3.5422911810597237
1.0314782891560756
20.842645563025947
-8.188677294410676
-0.40947569707158027
-0.8985329206386236
-0.2342224532514922
-0.11370122149152197
-0.030622973694939864
-0.11117851892118809
-0.1864431826905922
-0.656995249843258
-0.611037682902762
-6.115748166873882
17.9436687287805
3.513264873428889
-1.0157705268322184
0.14755638315049804
0.034519476290122926
-0.3200745179806818
2.111360507852823
1.0918357156493723
0.7143012927675584
0.5849512108744598
0.5327235982656072
0.5070780151880312
0.47819056576242364
0.44153767219740103
0.39741302031591663
0.34773441394004917
0.296248642753791
0.24498170970136518
0.19618649060494778
0.15081294425676328
0.10952501764894516
0.07261860527962002
0.040339185983402505
0.012576030827119377
-0.011148441866087183
-0.031074349526414843
-0.047516576832432
-0.06080286613793261
-0.07153231032514959
-0.08000409470406813
-0.08657324013274616
-0.09150366233932798
-0.09519474800248356
-0.097840674999057
-0.09966196549841433
-0.10080193228733854
-0.10145251276674423
-0.10169821187334256
-0.1016154877648035
-0.10123648720617437
-0.10058169690449367
-0.09963736076437293
-0.09833260314032731
-0.0966024587187057
-0.09433413952099379
-0.09141856744310065
-0.08762627994260234
-0.08279403948854146
-0.07668772935435586
-0.0690965230347811
-0.059553470599834256
-0.04781547749038131
-0.03366544327640045
-0.016478859886769073
0.003894455951296693
0.027727079929303157
0.05530255991331992
0.08677290326555846
0.12202452317933582
0.1605782842124113
0.20171289694271846
0.24406940728237758
0.2860042077732082
0.3248988489691322
0.35771488305838556
0.37972960802036637
0.38560223713927266
0.3710296332710664
0.3304085519407002
0.26136928946292887
0.16535269072579917
0.06630825140931035
0.3072881926364654
0.33716963764066327
-0.11573652173331479
-0.1307974253761069
-0.1057029653743409
-0.11372599972537784
-0.12456310643307908
0.7270002378638221
0.8347610661201326
0.04600870323212813
0.46799147285769166
0.41050854965791095
0.1669235892247457
0.003140652214692548
-0.07377800940943165
-0.10000842705897613
-0.10517308572290703
-0.10384426556828354
-0.10230235372446031
-0.09846102900256357
-0.08472415284736075
-0.04101250115069699
0.3086325115363525
0.10164048209171683
0.05154185611743752
0.21754682755645569
0.44228177432624216
0.5270415128835675
-0.10166989845274862
-0.09714958660717893
-0.10232683334028925
-0.08376162082835921
-0.09656590968600574
-0.07314977371486076
-0.01109620515817616
-0.04906856548376042
0.11625666115028253
0.32025999789602283
0.41159703555586347
0.4921549777065805
0.1334103562565263
2.2562427918719554
2.4658830512746874
0.31620323396090766
0.0070512819968919045
-0.31995637154022877
0.4335309716838548
-0.10229884422407394
-0.0998085064217382
-0.10034342963445494
-0.09158401823450413
-0.08707312577804986
-0.0687784533561846
-0.046476035772554554
0.046416257271757466
0.21339168008349502
0.04151025309362167
-0.14299599311368658
-0.11677059168593394
-0.12376013921981763
-0.10620231647601584
0.8926151231046172
0.5831070812336177
-0.031780502613611955
0.23793827684777272
0.14188739275032408
0.4592248666752312
0.22204143748104535
0.06508255435595844
-0.09858657297690607
0.3884768171594309
-0.030150428414468772
-0.4175174227329302
-0.150903097452729
0.03283469637695608
0.27463758335609273
-0.10461062751580556
-0.10805880231588677
-0.10490076405079286
-0.11262838140538776
-0.10508538586636111
-0.11290770107074592
-0.08228953371540679
-0.07287323302959482
0.8282364867947394
0.6979121472240731
-0.2006732664921118
-0.09797574430215834
-0.1424389821343566
-0.2098594493083839
-0.11468875443739425
0.3229209986549946
0.40046751231999894
0.5455839743902716
0.518208536736237
-0.30079627101777445
0.37596375007181
0.46729252531780696
-0.10187220034723662
-0.10165906868223581
-0.10037409182393787
-0.09787767281487948
-0.10071675088211197
-0.09730205397864201
-0.08621971835514132
-0.09350736520540963
-0.09021656716675865
-0.07754369645045546
-0.07431193904245463
-0.05634346419824698
-0.02429030440228022
-0.05647982520344211
0.023018011937641938
0.08695032492906495
0.2687342770702369
0.17053579943211475
-0.6002076543619252
-0.5404028514420935
2.332488349013331
1.9952132548619919
-0.014258224842214267
-0.235268119439023
-0.12196158088506079
0.1688963438087568
-1.006430018494526
0.2657684383722379
0.18014064169154972
0.039056075022548625
0.10135994496662895
0.3473642923001184
-0.008678132419132508
0.3932839980713133
0.21971588370659842
0.36633797741076
0.5347501650470895
0.716723212209981
0.4231127710315926
0.4970541458868366
0.3221099091865056
0.21875479882026505
0.1275233862227584
0.05384928178173667
-0.0016257608140320021
-0.041504788929904946
-0.06558044612507243
-0.041185543184077716
-0.08058022306685175
-0.06758247277366411
-0.08429381290826773
-0.09008177254110424
-0.09401462924880429
-0.09917842407864297
-0.09582146697368255
-0.09920979921613238
-0.10138378935071798
-0.10183238288461208
-0.10107226996759033
0.013845069568074794
0.13971146120993166
0.30798088977662363
-0.26983142064853677
0.09687760167323335
0.6181301515778301
0.537728449462133
2.803639780986742
1.9883191553969128
0.3871715681838244
0.428019309027474
0.4775223446245505
0.004784892039772436
0.30696043121030087
-0.024643928795251412
-0.2824282376114045
0.5891888931698436
0.5124030938530904
0.07570257575536446
-0.10321397500473775
-0.10471462992857761
-0.10083485651727199
-0.10381633085406321
-0.09306070128830746
-0.0898775484882028
-0.07165662527290198
-0.04160413474375071
0.3094435362395376
0.033959868670194925
1.2650000080121702
1.460233087187014
0.26559643453338705
0.09019446505420128
0.18038934558037875
0.41485630317576055
-0.1053627918935265
-0.10433367357298629
-0.11013097629540808
-0.10448262320536726
-0.11188692625776098
-0.09790160676921966
-0.09883040354778036
-0.028028712396173803
0.14415578752593808
5.32099894652934
5.209112715406884
-0.012092488889715034
2.094003374283704
0.4859303491889872
-0.10264781399102615
-0.10311152373156593
-0.10134385733194756
0.4010921826387253
-0.0998339359194488
-0.10268546539193589
-0.1009815788546847
-0.09588224318658388
-0.09126692852147045
-0.09483573225353534
-0.08666240984673294
-0.07951568253411341
-0.06724183752341731
-0.0652198631944702
-0.042166722732368093
0.011135236006285323
0.48725008386379215
0.060500125632120844
0.1628207587446094
0.24343962720501056
-0.06947796245057078
0.22266654544194026
0.06926312832372372