# vtk DataFile Version 1.0
2D Simulation C++
ASCII
DATASET UNSTRUCTURED_GRID
FIELD FieldData 1
NODES 1 2 int
348 601

POINTS 348 double
0.0 0.5 0.0
0.0 1.0 0.0
2.0 1.0 0.0
2.0 0.5 0.0
0.0 0.528801679611206 0.0
0.0 0.564507782459259 0.0
0.0 0.6110168099403381 0.0
0.0 0.6721802353858948 0.0
0.0 0.7528436183929443 0.0
0.0 0.8593378663063049 0.0
0.16666941344738007 1.0 0.0
0.3333356976509094 1.0 0.0
0.5000020265579224 1.0 0.0
0.6666678786277771 1.0 0.0
0.8333337306976318 1.0 0.0
1.0 1.0 0.0
1.1666662693023682 1.0 0.0
1.3333321809768677 1.0 0.0
1.4999979734420776 1.0 0.0
1.6666642427444458 1.0 0.0
1.8333306312561035 1.0 0.0
2.0 0.8593378663063049 0.0
2.0 0.7528436183929443 0.0
2.0 0.6721802353858948 0.0
2.0 0.6110168099403381 0.0
2.0 0.564507782459259 0.0
2.0 0.528801679611206 0.0
0.029850948601961136 0.5 0.0
0.05970168858766556 0.5 0.0
0.08955242484807968 0.5 0.0
0.1194031685590744 0.5 0.0
0.14925390481948853 0.5 0.0
0.17910465598106384 0.5 0.0
0.20895539224147797 0.5 0.0
0.2388061285018921 0.5 0.0
0.2686568796634674 0.5 0.0
0.29850760102272034 0.5 0.0
0.32835835218429565 0.5 0.0
0.35820910334587097 0.5 0.0
0.3880598247051239 0.5 0.0
0.4179105758666992 0.5 0.0
0.44776129722595215 0.5 0.0
0.47761204838752747 0.5 0.0
0.5074627995491028 0.5 0.0
0.5373135209083557 0.5 0.0
0.5671642422676086 0.5 0.0
0.5970150232315063 0.5 0.0
0.6268657445907593 0.5 0.0
0.6567164659500122 0.5 0.0
0.6865672469139099 0.5 0.0
0.7164179682731628 0.5 0.0
0.7462686896324158 0.5 0.0
0.7761194705963135 0.5 0.0
0.8059701919555664 0.5 0.0
0.8358209133148193 0.5 0.0
0.865671694278717 0.5 0.0
0.89552241563797 0.5 0.0
0.9253731369972229 0.5 0.0
0.9552239179611206 0.5 0.0
0.9850746393203735 0.5 0.0
1.0149253606796265 0.5 0.0
1.0447760820388794 0.5 0.0
1.0746268033981323 0.5 0.0
1.1044776439666748 0.5 0.0
1.1343283653259277 0.5 0.0
1.1641790866851807 0.5 0.0
1.1940298080444336 0.5 0.0
1.2238805294036865 0.5 0.0
1.2537312507629395 0.5 0.0
1.2835819721221924 0.5 0.0
1.3134328126907349 0.5 0.0
1.3432835340499878 0.5 0.0
1.3731342554092407 0.5 0.0
1.4029849767684937 0.5 0.0
1.4328356981277466 0.5 0.0
1.4626864194869995 0.5 0.0
1.492537260055542 0.5 0.0
1.522387981414795 0.5 0.0
1.5522387027740479 0.5 0.0
1.5820894241333008 0.5 0.0
1.6119401454925537 0.5 0.0
1.6417908668518066 0.5 0.0
1.6716417074203491 0.5 0.0
1.701492428779602 0.5 0.0
1.731343150138855 0.5 0.0
1.761193871498108 0.5 0.0
1.7910445928573608 0.5 0.0
1.8208953142166138 0.5 0.0
1.8507460355758667 0.5 0.0
1.8805968761444092 0.5 0.0
1.910447597503662 0.5 0.0
1.940298318862915 0.5 0.0
1.970149040222168 0.5 0.0
1.7358819246292114 0.7499510645866394 0.0
0.2656642198562622 0.7486277222633362 0.0
0.49981194734573364 0.737183690071106 0.0
0.74151611328125 0.7359843254089355 0.0
0.9774143695831299 0.7371892929077148 0.0
1.201690912246704 0.7367381453514099 0.0
1.447761058807373 0.7383390665054321 0.0
1.8591958284378052 0.6421071290969849 0.0
0.14080412685871124 0.6421071290969849 0.0
1.588537573814392 0.6783608794212341 0.0
0.2553686201572418 0.6221352219581604 0.0
1.7466964721679688 0.6278358101844788 0.0
0.38199201226234436 0.6273008584976196 0.0
0.5013589859008789 0.6272794008255005 0.0
0.6207823157310486 0.6272526383399963 0.0
0.7401852607727051 0.627252459526062 0.0
0.8595882654190063 0.6272523999214172 0.0
0.9701492786407471 0.6212864518165588 0.0
1.0807102918624878 0.6272523999214172 0.0
1.2001131772994995 0.6272523999214172 0.0
1.3195161819458008 0.6272523999214172 0.0
1.4488563537597656 0.6310953497886658 0.0
1.9247323274612427 0.5706554055213928 0.0
0.07526770234107971 0.5706554055213928 0.0
1.5377081632614136 0.5910930037498474 0.0
1.6566967964172363 0.5934624075889587 0.0
1.8074009418487549 0.5708622932434082 0.0
0.1940300166606903 0.5737577676773071 0.0
1.0286364555358887 0.5665481686592102 0.0
1.14803946018219 0.5665481686592102 0.0
0.9116620421409607 0.5665481686592102 0.0
1.2674424648284912 0.5665481686592102 0.0
0.7922590970993042 0.5665481686592102 0.0
0.6728560328483582 0.5665482878684998 0.0
0.5534531474113464 0.5665481686592102 0.0
1.3892061710357666 0.5727682709693909 0.0
0.43402159214019775 0.5665869116783142 0.0
0.3146642744541168 0.5667200088500977 0.0
1.8656742572784424 0.5607567429542542 0.0
0.1343258023262024 0.5607567429542542 0.0
1.5970147848129272 0.5642029047012329 0.0
1.8783670663833618 0.7786769866943359 0.0
0.12163297086954117 0.7786769866943359 0.0
1.7164177894592285 0.562579333782196 0.0
1.4776118993759155 0.5620538592338562 0.0
1.5857784748077393 0.867691159248352 0.0
0.25373148918151855 0.5588531494140625 0.0
0.9701492786407471 0.5582930445671082 0.0
1.0895521640777588 0.5582930445671082 0.0
0.8507462739944458 0.5582930445671082 0.0
1.20895516872406 0.5582930445671082 0.0
0.7313433289527893 0.5582930445671082 0.0
1.3283581733703613 0.5582930445671082 0.0
0.6119403839111328 0.5582930445671082 0.0
0.49253740906715393 0.5582930445671082 0.0
0.37313446402549744 0.5582956075668335 0.0
0.36864349246025085 0.7376502752304077 0.0
0.602456271648407 0.7355343103408813 0.0
0.8441241383552551 0.7366551756858826 0.0
1.3355978727340698 0.7366551160812378 0.0
1.0895521640777588 0.7378703355789185 0.0
0.07051979005336761 0.6486480832099915 0.0
1.9294801950454712 0.6486480832099915 0.0
1.5086064338684082 0.6743985414505005 0.0
1.6785967350006104 0.6649783849716187 0.0
1.9543375968933105 0.5452249050140381 0.0
0.04566239193081856 0.5452249050140381 0.0
1.6567095518112183 0.5496091842651367 0.0
1.53738272190094 0.5491842031478882 0.0
0.91306072473526 0.8965699672698975 0.0
1.7782752513885498 0.5446287989616394 0.0
1.4163299798965454 0.5447981357574463 0.0
0.4287482798099518 0.8945969939231873 0.0
1.2610714435577393 0.8950135707855225 0.0
0.4313095211982727 0.6832783222198486 0.0
0.31561949849128723 0.6858259439468384 0.0
1.029850721359253 0.6781684160232544 0.0
0.9082015752792358 0.6848641633987427 0.0
1.1492537260055542 0.6781684160232544 0.0
0.7886138558387756 0.678956151008606 0.0
1.2709345817565918 0.684736430644989 0.0
0.6685023903846741 0.6868807673454285 0.0
1.4007169008255005 0.6702371835708618 0.0
0.5483440160751343 0.6792802214622498 0.0
0.19808045029640198 0.6887137293815613 0.0
1.797759771347046 0.6853783130645752 0.0
0.6811949610710144 0.8757594227790833 0.0
1.0189321041107178 0.8474968671798706 0.0
0.7922950983047485 0.8446238040924072 0.0
1.3765455484390259 0.8590760827064514 0.0
1.1571698188781738 0.8478953838348389 0.0
1.8954496383666992 0.5359624624252319 0.0
1.8360060453414917 0.5359931588172913 0.0
0.10455036163330078 0.5359624624252319 0.0
0.16417928040027618 0.5353734493255615 0.0
0.5530290007591248 0.8422092199325562 0.0
0.2832632064819336 0.5367912650108337 0.0
0.22469767928123474 0.5394234657287598 0.0
0.9405550956726074 0.5357381105422974 0.0
0.9997434020042419 0.5357381105422974 0.0
1.0600273609161377 0.5365630984306335 0.0
1.1191463470458984 0.5357381105422974 0.0
0.8802711367607117 0.5365630984306335 0.0
0.8211521506309509 0.5357381105422974 0.0
1.2385493516921997 0.5357381105422974 0.0
1.179430365562439 0.5365630984306335 0.0
0.7608681321144104 0.5365630984306335 0.0
0.7017492055892944 0.5357381105422974 0.0
1.2988333702087402 0.5365630984306335 0.0
1.357560396194458 0.5390686392784119 0.0
0.5823462605476379 0.5357381105422974 0.0
0.6414651870727539 0.5365630984306335 0.0
0.5220622420310974 0.5365630984306335 0.0
0.4629422128200531 0.535739541053772 0.0
0.3435409665107727 0.5357455015182495 0.0
0.4026572108268738 0.5365669131278992 0.0
0.21006634831428528 0.8590372204780579 0.0
1.7943172454833984 0.8627070188522339 0.0
0.06134982034564018 0.7191494703292847 0.0
1.938650131225586 0.7191494703292847 0.0
1.634666085243225 0.7584379315376282 0.0
0.3355695903301239 0.8387951850891113 0.0
1.537941336631775 0.7633647918701172 0.0
1.9670078754425049 0.574067234992981 0.0
0.032992132008075714 0.574067234992981 0.0
1.6862140893936157 0.5314788222312927 0.0
1.6272135972976685 0.5317342281341553 0.0
1.5077245235443115 0.5309156775474548 0.0
1.5668202638626099 0.5316618084907532 0.0
1.7466963529586792 0.5298213958740234 0.0
1.4473658800125122 0.5297333002090454 0.0
1.804386019706726 0.5275400876998901 0.0
1.9283779859542847 0.5282225012779236 0.0
1.8656879663467407 0.5267112255096436 0.0
0.13432854413986206 0.5271331071853638 0.0
0.07162196189165115 0.5282225012779236 0.0
0.25373148918151855 0.527070939540863 0.0
0.19419340789318085 0.5297109484672546 0.0
0.31349387764930725 0.5272363424301147 0.0
0.37313446402549744 0.5270199179649353 0.0
0.4329495429992676 0.5274069309234619 0.0
0.49253740906715393 0.5270196795463562 0.0
0.5523557066917419 0.5274024605751038 0.0
1.3898069858551025 0.5277745127677917 0.0
1.3283581733703613 0.5270196795463562 0.0
0.6119403839111328 0.5270196795463562 0.0
1.2685397863388062 0.5274024605751038 0.0
0.6717586517333984 0.5274024605751038 0.0
0.7313433289527893 0.5270196795463562 0.0
1.20895516872406 0.5270196795463562 0.0
0.7911616563796997 0.5274024605751038 0.0
0.8507462739944458 0.5270196795463562 0.0
1.1491369009017944 0.5274024605751038 0.0
1.0895521640777588 0.5270196795463562 0.0
0.9105646014213562 0.5274024605751038 0.0
0.9701492786407471 0.5270196795463562 0.0
1.0297338962554932 0.5274024605751038 0.0
1.4776118993759155 0.5259945392608643 0.0
1.597015619277954 0.5255197882652283 0.0
1.7164177894592285 0.525999903678894 0.0
1.6834615468978882 0.8477573990821838 0.0
1.5822722911834717 0.6086509227752686 0.0
0.20459823310375214 0.6270732283592224 0.0
1.8037469387054443 0.6209055185317993 0.0
0.09990309923887253 0.8589919805526733 0.0
1.9000968933105469 0.8589919805526733 0.0
1.75603187084198 0.5789161324501038 0.0
0.10896337777376175 0.5982794761657715 0.0
1.8910366296768188 0.5982794761657715 0.0
1.4950518608093262 0.605266273021698 0.0
1.7049394845962524 0.6007562279701233 0.0
1.4387125968933105 0.5775743722915649 0.0
1.489302158355713 0.851039469242096 0.0
0.15732239186763763 0.5961292386054993 0.0
1.8436260223388672 0.5944437384605408 0.0
0.4399496018886566 0.6259797215461731 0.0
1.022565245628357 0.6257523894309998 0.0
[...]
POINT_DATA 348
SCALARS Psi double
LOOKUP_TABLE default
1.0878984745059206
1.0
1.0
1.0766684692566435
1.0877880062308767
1.0875451104726968
1.0891468084440863
1.0938728055775007
1.103351076028601
1.1418217491790554
1.0
1.0
1.0
1.0
1.0
1.0
1.0
1.0
1.0
1.0
1.0
1.134268546394865
1.0942751242409672
1.0844750354831838
1.0798819113724083
1.0777145537983464
1.0768590541920275
1.0879812890902083
1.086711873720368
1.0848223047273022
1.0824207999612783
1.0794798105856387
1.076023747953618
1.0721218737328337
1.0678672938765654
1.0633834607860382
1.0587584764216071
1.0540920620728178
1.0494630468909545
1.0449565223378607
1.0406243933955637
1.0364944248356232
1.0325996192880917
1.028967284469056
1.0256109400015743
1.0225183845118482
1.0196944968263222
1.0171381906735373
1.014844862038211
1.0127905844151877
1.0109687791865218
1.0093691715629347
1.0079826246132668
1.0067887562643627
1.0057803759758304
1.0049494028548862
1.0042890027962375
1.0037866646418079
1.0034382993190756
1.0032411995659944
1.0031934442639976
1.0032914481784263
1.0035346311375257
1.0039285742433681
1.0044762170590071
1.0051807818982692
1.0060462357461997
1.0070859529070197
1.008306272464419
1.009714470003163
1.0113162605269275
1.0131345528458306
1.0151740580343676
1.0174309700493611
1.0199346785756132
1.0226764930901493
1.0256555034855543
1.028872214843618
1.0323240682515782
1.0359903891850195
1.0398395377927858
1.0438338440270767
1.0479255363452395
1.05205430325623
1.0561439082955977
1.0601072579918003
1.0638381740187965
1.067240212774822
1.0702047587100603
1.072629192736777
1.074475647686301
1.0757491274576887
1.0764613444357802
1.046786711109749
1.05188549749953
1.0201199545674666
1.005808648840525
1.00167308907323
1.0036439487144648
1.0139159671409288
1.0733682570847232
1.082112746639534
1.031107448464217
1.063534310992452
1.056689605790546
1.0425530035947297
1.0268241535057543
1.0156243623884158
1.0084497788026179
1.0043633587493626
1.0028457867716807
1.0030421303403578
1.0054010944040006
1.010298851892447
1.0190457071421462
1.0762815970208393
1.0856765450456414
1.0292513434324901
1.0445295116975015
1.0659083918864367
1.0740341916067149
1.0030690600136967
1.0045811566254808
1.0038189305409808
1.0086117114269166
1.007031564622473
1.013238459437159
1.0232041804416916
1.0157540903958495
1.0374860201990455
1.0554784179709236
1.0719808302860108
1.0811616401265007
1.0372069616075086
1.0782438794756353
1.0863580194891456
1.0536728172764966
1.0235734735172657
1.0130768691662633
1.0652546100949472
1.003197052473012
1.0035798881935636
1.0051657431279089
1.0063427129972866
1.0098477968555473
1.0118732770505459
1.017911442659963
1.0300947466121222
1.0464794892479874
1.0356947694515575
1.0123546184430505
1.0031387426964244
1.007992742049628
1.0019375177825474
1.0902638557374287
1.080784317872815
1.02263679675175
1.0445797931518372
1.076648652992472
1.0869297742305148
1.0454993564028192
1.0301804044160843
1.0004324779457145
1.0622233994946002
1.0182593122279588
1.010523864373767
1.0014801910947342
1.0321300518410073
1.0494026491767936
1.0022866924228702
1.0028325832447518
1.003548759332401
1.0056184817133802
1.0068375194662313
1.0105844966847424
1.0140169693415877
1.0195846246205802
1.0716959174673106
1.0635402041394357
1.0033690888747588
1.0005515289266016
1.001909153008119
1.0044737988317909
1.0011770794818946
1.0738826786534978
1.0689326686853935
1.0837058532098673
1.0778577788647907
1.0080518454116594
1.0609556648015979
1.0698224662033153
1.0035449095528763
1.003156898113381
1.003351435571071
1.0041283491621864
1.0045480023594855
1.0061844091927719
1.0075849559331445
1.0055370177879104
1.008572133313087
1.0117220718823792
1.0104033157148813
1.0139270178227937
1.0208731770420267
1.0158334216377232
1.0270743050415643
1.0342521732263177
1.051505429193882
1.042562082357399
1.0395567065611537
1.0362112339411227
1.098043592003913
1.0884747659977336
1.0302226293673087
1.0266177484462187
1.0193764487887336
1.0777981806244412
1.0869960836179275
1.049814493464475
1.0417081050560855
1.0271153359102443
1.0339262736258146
1.0581499446394134
1.0211277923836966
1.0654241818171084
1.0754785720491213
1.0715896555247892
1.0810291667557046
1.0859076136182297
1.0655604214028807
1.0740717861641003
1.0562842958538776
1.0470323712778824
1.038362659914786
1.0306044752124568
1.0238980839152612
1.016320485811624
1.0121235364305838
1.0182792587005502
1.0089275203721781
1.0137006778721855
1.0100775781267832
1.0065003902887608
1.0073102832350667
1.005304971057275
1.0047733073656622
1.0036843055083042
1.0039874088494394
1.003294880301142
1.0031996899315194
1.0240373575829007
1.0377827111537763
1.0540276655971703
1.0247321279254595
1.0340237284795017
1.0720977954053776
1.0654174776673155
1.0766798885028093
1.069455570011368
1.0590427058656995
1.084187003858446
1.0751055971259484
1.0242340643880605
1.0512398238739737
1.0196470454202309
1.0091319940554682
1.0790605294258204
1.0704032401573662
1.034444006344295
1.0027017717232878
1.003311606665361
1.0039833364085748
1.00614424724041
1.0075903524984573
1.0117379897082428
1.0131967721968638
1.0208948219763407
1.0530712580073502
1.0269044500744036
1.0769456125866208
1.0853521982253411
1.0490327200726122
1.0329780828114228
1.0415769128202015
1.0531510677116245
1.0023830257252764
1.0026693188057272
1.0039418911336477
1.005021975539447
1.0079147626328107
1.0097441058479255
1.0144741786151463
1.0255108295520217
1.0411378679621532
1.1079720339972996
1.0992860060360787
1.076666239548348
1.0879553704915939
1.060763065408411
1.002973487024303
1.003251575736885
1.0031706622359362
1.0612209313493597
1.003752708678461
1.004377022242905
1.0056003462581158
1.0053642798870406
1.0069008653554932
1.0083446693184104
1.0107080771129588
1.0101583380857007
1.012799059173116
1.0154620518406465
1.0192794234283076
1.026546538835541
1.0680748969585943
1.03207164991569
1.0420100803880306
1.0488854790191864
1.017436272664008
1.0457873258268333
1.0304818268431863
1.0386471657761416
1.0014570165754402
1.0217583110289157
1.0389659103822082
1.0837777927920313
1.0744046642619007
1.0002569121773368
1.0282062276242923
1.0692428658326427
1.0781093475385575
1.00394019568537
1.0875215093190778
1.077133106768486
1.0872136409914481
1.0783251134840632
1.0690638753648483
1.0624278431759822
1.0620060165734524
1.018597516990547
1.0010538007721423
1.0163453081958274
1.0065916817527132
1.0761908357874144
1.087210488862869
1.0528187222834897
1.0469710938931727

SCALARS Omega double
LOOKUP_TABLE default
4.100276591395713
-10.327730795436104
-14.268649563397876
0.1321785705701724
4.492515426469384
-2.6837945533079863
-4.473557660634669
3.542292223091318
1.0314781535194903
20.842645460337366
-8.188675201154036
-0.40947252232507064
-0.8985275653938689
-0.23421395942755838
-0.11369097867130049
-0.03061211119014597
-0.11116900932419413
-0.18643504131191185
-0.6569892800265964
-0.6110339256923826
-6.115745385050977
17.94367058510942
3.5124636782392957
-1.0379081270119266
0.14534828365014146
0.0335122576962237
-0.3220314024803217
2.1113617298257266
1.0918367791703267
0.7143021740896399
0.5849518485730659
0.5327239424929836
0.5070780229781076
0.4781901953453387
0.44153688695108534
0.39741178056708754
0.3477326855174152
0.29624639566452415
0.24497892024275933
0.19618313349197472
0.1508090029246104
0.10952048225670377
0.07261347350639774
0.04033345357912957
0.01256970299309049
-0.011155351329580461
-0.031081819755351948
-0.04752459062711115
-0.06081139786220659
-0.07154132509423398
-0.08001355261642128
-0.08658310712086942
-0.09151389784999132
-0.09520530149861375
-0.09785149337483388
-0.09967300325199202
-0.1008131404369103
-0.10146383312963532
-0.10170958672119823
-0.10162686877437882
-0.10124796093657458
-0.1005929094886294
-0.09964829274356303
-0.09834303166584374
-0.09661228012447369
-0.09434272394968111
-0.09142625853744764
-0.08763222668430894
-0.08279843107412829
-0.0766884452307998
-0.06909527064199653
-0.05954731729102909
-0.047802903249962204
-0.033664973885457465
-0.016472751712202076
0.003910499114042686
0.02774308170473572
0.055309120537463834
0.08677693338048134
0.12203690492205546
0.16057613136085064
0.20168960504349187
0.2440135057808359
0.2859350888697547
0.3247869460039758
0.35760137009319315
0.37954715493408114
0.38524800492440725
0.3706556219672295
0.33000239086053734
0.2610341029399155
0.1651091931384915
0.06635078647410336
0.3151066787097515
0.33936277925756136
-0.11646412749211174
-0.13091185667441982
-0.10570544244127922
-0.11366535237417408
-0.12385496956468188
0.7178328075969904
0.8448250621504636
0.046919300114877105
0.469881628208001
0.4081247471793716
0.16694960755828703
0.002897547175427673
-0.07395212630508344
-0.10007944145244325
-0.10519634428525054
-0.10385548595555717
-0.10230780758084448
-0.09843631749300995
-0.08460653283898097
-0.04068562454058004
0.3065098106910653
0.09488991775560716
0.05186250842976075
0.2173010543422013
0.43991741008701235
0.5280590909252966
-0.1016807373980378
-0.09715105264443023
-0.1023406554709954
-0.08372762102510416
-0.09659159909591838
-0.07320444395687926
-0.01117193271889015
-0.04893133638164299
0.11627850663337735
0.32074728071659436
0.4093844304730743
0.4908519705420826
0.13352109534943254
2.249060120061609
2.5274009286828365
0.31560108615769045
0.007244176733281775
-0.3187831354448897
0.4342894838820165
-0.10231092622108161
-0.09981692806405154
-0.1003616119158852
-0.09157790155477788
-0.08711259275202463
-0.06873062135340577
-0.046554572856948084
0.04633405892939735
0.21351020278403932
0.04064205045434194
-0.14344316639388435
-0.11680355787946109
-0.12342029435511608
-0.10619346693416841
0.9676272328609287
0.5747828401966278
-0.031028869523728454
0.23799457140300923
0.14049951445142855
0.450387409227619
0.22190937382064999
0.06523625353622804
-0.0985790664449496
0.3875232242055666
-0.03006943443440442
-0.4188839881073712
-0.15081365778137915
0.03255470394299183
0.2753749214095009
-0.1046161632896904
-0.10807518480278111
-0.10488149130466116
-0.11268902260608492
-0.10497213967851345
-0.1131059982185303
-0.0819065312013101
-0.07324263405403153
0.8361155033640363
0.6923071888276578
-0.20088340153444806
-0.09796264604996924
-0.14249513301137454
-0.20891313998482802
-0.11464430760699013
0.3216035002334106
0.3990826750053653
0.5432661528299719
0.5181516061358598
-0.30164007038485174
0.3762588670955605
0.4676878473958353
-0.1018840762013586
-0.10167070349685876
-0.10038421079555615
-0.09788440007488877
-0.10072930314615851
-0.09731626898273475
-0.08620622829728863
-0.09350530320948544
-0.09023276549148732
-0.07756313163717925
-0.07426981170367553
-0.056273975081847755
-0.02430827553348037
-0.05649859200342192
0.02302009819072769
0.08697762293822005
0.26890621586201624
0.17062922353080182
-0.6191909294917562
-0.5147470841169314
2.329445225118758
1.9777754326562127
-0.01150973535536519
-0.23816940700228503
-0.12062838988453137
0.16690677657361697
-1.0217322041322874
0.26552628033289427
0.18017280045771078
0.03920614717657925
0.10148348527304907
0.34662514697215663
-0.008566668969850364
0.3920916325696463
0.21860644186078518
0.36523518411927103
0.5338230402322762
0.712493998182024
0.4234154728675365
0.4972714401489913
0.32227161888161104
0.21880357136845593
0.1275221873149887
0.053812359521176314
-0.0016606519172496434
-0.04142765044563981
-0.06554031119322733
-0.04122242055252859
-0.0805613824352222
-0.06760899316181933
-0.08431587013586872
-0.09007820841111784
-0.09403104486061249
-0.0991924107517319
-0.09582606824290457
-0.09921886260678109
-0.10139610467726635
-0.10184407580574613
-0.10108332295890829
0.013962250849890183
0.13979943912241685
0.3076025263571243
-0.26389127315739347
0.09725913339109529
0.6218180596335182
0.5337798651870855
2.9039953778016723
2.155648207265841
0.385646020745454
0.4315959595356722
0.47340738223766116
0.005161758004367446
0.3062370625432143
-0.02441038489752033
-0.2810106959149862
0.5921227818732272
0.5085895250222352
0.07552629316157547
-0.10322296887730761
-0.10472893921779088
-0.10082993819186002
-0.10385718316140373
-0.0929965154974879
-0.08998797085806357
-0.07147385155956514
-0.041828838957401956
0.3101615018917647
0.03413599037443191
1.2523254612617878
1.4785748227904818
0.26516210034471166
0.09036934035610734
0.1803309547058582
0.41361737900019696
-0.10537196689888888
-0.10433475528591724
-0.1101642659622605
-0.10444550632402516
-0.11200116001572769
-0.09772746947776785
-0.0991526260697362
-0.028490043251685738
0.14423106337712072
5.59834230259194
5.403331021629073
-0.01285576129985546
2.097569030710678
0.4888528703124091
-0.10265928973091543
-0.10312383634480035
-0.10135194605797769
0.4019968996810328
-0.09983805538478178
-0.10270297647367707
-0.10100566888394896
-0.09587048404946277
-0.09124247914475911
-0.09487819303127736
-0.08672286982800205
-0.07944071603573809
-0.06713690872751127
-0.06531830849044576
-0.04228617850092546
0.01099942535693897
0.48867830817110275
0.06039491839183106
0.1628720219132807
0.24370900185569322
-0.0690211703721633
0.22262509022681795
0.0693833280335358
0.14914127614685968
-0.10985028243037273
-0.16829937846685114
0.15224910600441796
0.3821709177778065
0.37518986524020426
-0.08900149604136762
0.032410881777244216
0.4400053669957906
0.5321896093696262
-0.1340929809048941
0.46689768371803964
0.011219789281156843
-0.5101373601020733
0.34085160636949147
1.0203185730901536
0.927159851839103
0.37332386665030254
-0.026222501830741145
-0.17256911002191247
-0.052967204205353655
-0.1661729546622628
0.11856080318475369
1.2482118262422495
0.5729328676154357
-1.2167721124875297

SCALARS Vx_analytic double
LOOKUP_TABLE default
4.100276591395713
-10.327730795436104
-14.268649563397876
0.13210637964576288
4.492515426469384
-2.6837945533079863
-4.473557660634669
3.542292223091318
1.0314781535194903
20.842645460337366
-8.188675201154036
-0.40947252232507064
-0.8985275653938689
-0.23421395942755838
-0.11369097867130049
-0.03061211119014597
-0.11116900932419413
-0.18643504131191185
-0.6569892800265962
-0.6110339256923826
-6.115745385050977
17.94367058510942
3.513264695897601
-1.0157705221644127
0.1475555398777845
0.034519698997673084
-0.32007619909061596
2.1113617298257266
1.0918367791703267
0.7143021740896399
0.5849518485730659
0.5327239424929836
0.5070780229781076
0.4781901953453387
0.44153688695108534
0.39741178056708754
0.3477326855174152
0.29624639566452415
0.24497892024275933
0.19618313349197472
0.1508090029246104
0.10952048225670377
0.07261347350639774
0.04033345357912957
0.01256970299309049
-0.011155351329580461
-0.031081819755351948
-0.04752459062711115
-0.06081139786220659
-0.07154132509423398
-0.08001355261642128
-0.08658310712086942
-0.09151389784999132
-0.09520530149861375
-0.09785149337483388
-0.09967300325199202
-0.1008131404369103
-0.10146383312963532
-0.10170958672119823
-0.10162686877437882
-0.10124782765054745
-0.10059294204194442
-0.09964845504937787
-0.09834350190109727
-0.09661312131879246
-0.09434451871860348
-0.09142861870458265
-0.08763597043768608
-0.08280334278890471
-0.0766966137963736
-0.06910496134824956
-0.05956144851390518
-0.0478229875400531
-0.033672460396413646
-0.01648539145237344
0.0038884095097852373
0.027721518384720926
0.05529747411443701
0.08676827989983586
0.12202034388197536
0.1605745305574066
0.20170954643105232
0.24406643450333568
0.28600158380068147
0.32489654469079565
0.3577128693745385
0.379727856929237
0.3856007159068392
0.37102831606710934
0.33040741310235766
0.26136830543634865
0.16535185060576899
0.06630766750194782
0.3072890282179716
0.33717061452092867
-0.11573714656012561
-0.13079943948012204
-0.10570535512390881
-0.1137278022994823
-0.12456353024137448
0.7269997387825821
0.8347617254270995
0.046007270506544504
0.46799101154746814
0.4105073469606236
0.16692146289100207
0.003136668823908211
-0.07378379845270244
-0.10001567391902873
-0.10518127231498707
-0.10385296486821753
-0.10231052803076293
-0.09846832164148411
-0.0847301284398818
-0.04101671792383113
0.3086317366367632
0.10164156815108981
0.05153787112987002
0.21754434337180178
0.44228040793504675
0.5270414712543872
-0.10168036655234211
-0.09715932322659698
-0.10233728464411275
-0.08377000668667144
-0.0965755624829798
-0.0731579142002163
-0.01110232766313456
-0.049075079329419416
0.11625277765605138
0.320258229891221
0.41159595865398524
0.49215553312082566
0.13340677181582888
2.2562437466215437
2.465884214837692
0.31620104478256894
0.007045941752146156
-0.31995283261098134
0.4335301034134757
-0.10230954769969845
-0.09981884026471721
-0.10035371804727132
-0.09159326976904036
-0.08708221543359367
-0.06878611534530113
-0.04648330343857519
0.04641118694696241
0.21338885459220525
0.041510521744981134
-0.14299730792783133
-0.11677288635863081
-0.12376119510985188
-0.10620445994408281
0.8926160215205043
0.5831067609988716
-0.03178275469460677
0.23793720672140528
0.1418866574597035
0.45922610610664655
0.22203848098083478
0.06507796699728684
-0.09857956794857067
0.38847507772027284
-0.030156942438425323
-0.4175139088449961
-0.15089691667409208
0.03283307489491929
0.27463727441335406
-0.10461649295414453
-0.10806434632248607
-0.10490610193156286
-0.1126337190957488
-0.10508948353649568
-0.11291175052286673
-0.08229300621659869
-0.07287632478518073
0.8282370826628976
0.69791199909006
-0.20066822435961823
-0.09797116703088432
-0.14243482955311323
-0.20985491953468474
-0.11468425977836788
0.3229199860492077
0.4004661603599264
0.5455847679291137
0.5182087427677325
-0.30079309657104825
0.3759623336509291
0.46729198944466743
-0.10188333045338761
-0.10167020731102715
-0.10038502890796087
-0.09788823854675222
-0.10072764797373704
-0.09731253721590959
-0.0862290154125616
-0.09351735548254766
-0.0902264106629845
-0.07755275575138919
-0.07432039420403914
-0.05635099744409388
-0.02429735123511698
-0.05648791947704044
0.023012124120606665
0.08694559797827929
0.2687318303377964
0.1705322541863468
-0.6002055555256428
-0.5404004018209361
2.3324891610305016
1.9952133237032899
-0.014257358255223476
-0.23526584133958062
-0.12196078555212411
0.16889580909642113
-1.0064285288164427
0.26576571577977715
0.18013718698295175
0.03905086594865994
0.10135564260067542
0.3473621975745238
-0.008684319444187245
0.3932823963532703
0.21971500681178982
0.3663367858564358
0.5347506766808823
0.7167242441775633
0.4231117937816311
0.4970539901841617
0.3221079645654238
0.21875178329698824
0.12751921381714995
0.053843932016246696
-0.0016322894206616109
-0.04151191155064138
-0.06558852477114757
-0.0411931785999536
-0.08058918605330409
-0.06759113277234559
-0.08430334731521603
-0.09009150162918121
-0.0940248919107282
-0.09918920923254454
-0.09583184572164613
-0.09922064608284614
-0.10139490965510027
-0.10184361020514764
-0.10108341549804296
0.013839356920079026
0.13970756573245233
0.30797848305192643
-0.26982869697737066
0.0968745054046587
0.618130260090933
0.5377275131525115
2.803641245253309
1.988321001378372
0.38716987918867873
0.42802012396645267
0.4775215942839021
0.004780602870167971
0.30695853228081715
-0.024649601427362295
-0.28242466287452184
0.5891893005314867
0.5124021151991678
0.0756995231907627
-0.1032224603563339
-0.10472312727565311
-0.10084273201006963
-0.10382419512380175
-0.09306743180288009
-0.08988417115472506
-0.07166214313220776
-0.041609082753821545
0.30944238264525015
0.03395512403855021
1.265000153519133
1.4602339633011636
0.26559395215651976
0.0901905006483631
0.18038623593962264
0.41485591046487713
-0.10536896235447178
-0.10433930005249513
-0.11013665881848772
-0.1044876029482752
-0.1118919471958605
-0.09790551172982202
-0.0988342332162833
-0.028031205036253455
0.1441547257621761
5.320999423523919
5.209113620693711
-0.01209332746379349
2.0940044611019393
0.48593036170383247
-0.10265782145730806
-0.10312143453262017
-0.10135356154035295
0.40109114383527705
-0.0998434218409787
-0.10269515363957446
-0.10099102635380819
-0.09589104254705895
-0.09127527610624697
-0.0948444375797706
-0.08667060521092022
-0.0795230526677226
-0.06724861035058032
-0.06522696170435717
-0.04217311602228688
0.011130154359658756
0.48724962629616153
0.060495842167758614
0.16281780513829788
0.24343739591994096
-0.06948058667619916