# vtk DataFile Version 1.0
2D Simulation C++
ASCII
DATASET UNSTRUCTURED_GRID
FIELD FieldData 1
NODES 1 2 int
348 601

POINTS 348 double
0.0 0.5 0.0
0.0 1.0 0.0
2.0 1.0 0.0
2.0 0.5 0.0
0.0 0.528801679611206 0.0
0.0 0.564507782459259 0.0
0.0 0.6110168099403381 0.0
0.0 0.6721802353858948 0.0
0.0 0.7528436183929443 0.0
0.0 0.8593378663063049 0.0
0.16666941344738007 1.0 0.0
0.3333356976509094 1.0 0.0
0.5000020265579224 1.0 0.0
0.6666678786277771 1.0 0.0
0.8333337306976318 1.0 0.0
1.0 1.0 0.0
1.1666662693023682 1.0 0.0
1.3333321809768677 1.0 0.0
1.4999979734420776 1.0 0.0
1.6666642427444458 1.0 0.0
1.8333306312561035 1.0 0.0
2.0 0.8593378663063049 0.0
2.0 0.7528436183929443 0.0
2.0 0.6721802353858948 0.0
2.0 0.6110168099403381 0.0
2.0 0.564507782459259 0.0
2.0 0.528801679611206 0.0
0.029850948601961136 0.5 0.0
0.05970168858766556 0.5 0.0
0.08955242484807968 0.5 0.0
0.1194031685590744 0.5 0.0
0.14925390481948853 0.5 0.0
0.17910465598106384 0.5 0.0
0.20895539224147797 0.5 0.0
0.2388061285018921 0.5 0.0
0.2686568796634674 0.5 0.0
0.29850760102272034 0.5 0.0
0.32835835218429565 0.5 0.0
0.35820910334587097 0.5 0.0
0.3880598247051239 0.5 0.0
0.4179105758666992 0.5 0.0
0.44776129722595215 0.5 0.0
0.47761204838752747 0.5 0.0
0.5074627995491028 0.5 0.0
0.5373135209083557 0.5 0.0
0.5671642422676086 0.5 0.0
0.5970150232315063 0.5 0.0
0.6268657445907593 0.5 0.0
0.6567164659500122 0.5 0.0
0.6865672469139099 0.5 0.0
0.7164179682731628 0.5 0.0
0.7462686896324158 0.5 0.0
0.7761194705963135 0.5 0.0
0.8059701919555664 0.5 0.0
0.8358209133148193 0.5 0.0
0.865671694278717 0.5 0.0
0.89552241563797 0.5 0.0
0.9253731369972229 0.5 0.0
0.9552239179611206 0.5 0.0
0.9850746393203735 0.5 0.0
1.0149253606796265 0.5 0.0
1.0447760820388794 0.5 0.0
1.0746268033981323 0.5 0.0
1.1044776439666748 0.5 0.0
1.1343283653259277 0.5 0.0
1.1641790866851807 0.5 0.0
1.1940298080444336 0.5 0.0
1.2238805294036865 0.5 0.0
1.2537312507629395 0.5 0.0
1.2835819721221924 0.5 0.0
1.3134328126907349 0.5 0.0
1.3432835340499878 0.5 0.0
1.3731342554092407 0.5 0.0
1.4029849767684937 0.5 0.0
1.4328356981277466 0.5 0.0
1.4626864194869995 0.5 0.0
1.492537260055542 0.5 0.0
1.522387981414795 0.5 0.0
1.5522387027740479 0.5 0.0
1.5820894241333008 0.5 0.0
1.6119401454925537 0.5 0.0
1.6417908668518066 0.5 0.0
1.6716417074203491 0.5 0.0
1.701492428779602 0.5 0.0
1.731343150138855 0.5 0.0
1.761193871498108 0.5 0.0
1.7910445928573608 0.5 0.0
1.8208953142166138 0.5 0.0
1.8507460355758667 0.5 0.0
1.8805968761444092 0.5 0.0
1.910447597503662 0.5 0.0
1.940298318862915 0.5 0.0
1.970149040222168 0.5 0.0
1.7358819246292114 0.7499510645866394 0.0
0.2656642198562622 0.7486277222633362 0.0
0.49981194734573364 0.737183690071106 0.0
0.74151611328125 0.7359843254089355 0.0
0.9774143695831299 0.7371892929077148 0.0
1.201690912246704 0.7367381453514099 0.0
1.447761058807373 0.7383390665054321 0.0
1.8591958284378052 0.6421071290969849 0.0
0.14080412685871124 0.6421071290969849 0.0
1.588537573814392 0.6783608794212341 0.0
0.2553686201572418 0.6221352219581604 0.0
1.7466964721679688 0.6278358101844788 0.0
0.38199201226234436 0.6273008584976196 0.0
0.5013589859008789 0.6272794008255005 0.0
0.6207823157310486 0.6272526383399963 0.0
0.7401852607727051 0.627252459526062 0.0
0.8595882654190063 0.6272523999214172 0.0
0.9701492786407471 0.6212864518165588 0.0
1.0807102918624878 0.6272523999214172 0.0
1.2001131772994995 0.6272523999214172 0.0
1.3195161819458008 0.6272523999214172 0.0
1.4488563537597656 0.6310953497886658 0.0
1.9247323274612427 0.5706554055213928 0.0
0.07526770234107971 0.5706554055213928 0.0
1.5377081632614136 0.5910930037498474 0.0
1.6566967964172363 0.5934624075889587 0.0
1.8074009418487549 0.5708622932434082 0.0
0.1940300166606903 0.5737577676773071 0.0
1.0286364555358887 0.5665481686592102 0.0
1.14803946018219 0.5665481686592102 0.0
0.9116620421409607 0.5665481686592102 0.0
1.2674424648284912 0.5665481686592102 0.0
0.7922590970993042 0.5665481686592102 0.0
0.6728560328483582 0.5665482878684998 0.0
0.5534531474113464 0.5665481686592102 0.0
1.3892061710357666 0.5727682709693909 0.0
0.43402159214019775 0.5665869116783142 0.0
0.3146642744541168 0.5667200088500977 0.0
1.8656742572784424 0.5607567429542542 0.0
0.1343258023262024 0.5607567429542542 0.0
1.5970147848129272 0.5642029047012329 0.0
1.8783670663833618 0.7786769866943359 0.0
0.12163297086954117 0.7786769866943359 0.0
1.7164177894592285 0.562579333782196 0.0
1.4776118993759155 0.5620538592338562 0.0
1.5857784748077393 0.867691159248352 0.0
0.25373148918151855 0.5588531494140625 0.0
0.9701492786407471 0.5582930445671082 0.0
1.0895521640777588 0.5582930445671082 0.0
0.8507462739944458 0.5582930445671082 0.0
1.20895516872406 0.5582930445671082 0.0
0.7313433289527893 0.5582930445671082 0.0
1.3283581733703613 0.5582930445671082 0.0
0.6119403839111328 0.5582930445671082 0.0
0.49253740906715393 0.5582930445671082 0.0
0.37313446402549744 0.5582956075668335 0.0
0.36864349246025085 0.7376502752304077 0.0
0.602456271648407 0.7355343103408813 0.0
0.8441241383552551 0.7366551756858826 0.0
1.3355978727340698 0.7366551160812378 0.0
1.0895521640777588 0.7378703355789185 0.0
0.07051979005336761 0.6486480832099915 0.0
1.9294801950454712 0.6486480832099915 0.0
1.5086064338684082 0.6743985414505005 0.0
1.6785967350006104 0.6649783849716187 0.0
1.9543375968933105 0.5452249050140381 0.0
0.04566239193081856 0.5452249050140381 0.0
1.6567095518112183 0.5496091842651367 0.0
1.53738272190094 0.5491842031478882 0.0
0.91306072473526 0.8965699672698975 0.0
1.7782752513885498 0.5446287989616394 0.0
1.4163299798965454 0.5447981357574463 0.0
0.4287482798099518 0.8945969939231873 0.0
1.2610714435577393 0.8950135707855225 0.0
0.4313095211982727 0.6832783222198486 0.0
0.31561949849128723 0.6858259439468384 0.0
1.029850721359253 0.6781684160232544 0.0
0.9082015752792358 0.6848641633987427 0.0
1.1492537260055542 0.6781684160232544 0.0
0.7886138558387756 0.678956151008606 0.0
1.2709345817565918 0.684736430644989 0.0
0.6685023903846741 0.6868807673454285 0.0
1.4007169008255005 0.6702371835708618 0.0
0.5483440160751343 0.6792802214622498 0.0
0.19808045029640198 0.6887137293815613 0.0
1.797759771347046 0.6853783130645752 0.0
0.6811949610710144 0.8757594227790833 0.0
1.0189321041107178 0.8474968671798706 0.0
0.7922950983047485 0.8446238040924072 0.0
1.3765455484390259 0.8590760827064514 0.0
1.1571698188781738 0.8478953838348389 0.0
1.8954496383666992 0.5359624624252319 0.0
1.8360060453414917 0.5359931588172913 0.0
0.10455036163330078 0.5359624624252319 0.0
0.16417928040027618 0.5353734493255615 0.0
0.5530290007591248 0.8422092199325562 0.0
0.2832632064819336 0.5367912650108337 0.0
0.22469767928123474 0.5394234657287598 0.0
0.9405550956726074 0.5357381105422974 0.0
0.9997434020042419 0.5357381105422974 0.0
1.0600273609161377 0.5365630984306335 0.0
1.1191463470458984 0.5357381105422974 0.0
0.8802711367607117 0.5365630984306335 0.0
0.8211521506309509 0.5357381105422974 0.0
1.2385493516921997 0.5357381105422974 0.0
1.179430365562439 0.5365630984306335 0.0
0.7608681321144104 0.5365630984306335 0.0
0.7017492055892944 0.5357381105422974 0.0
1.2988333702087402 0.5365630984306335 0.0
1.357560396194458 0.5390686392784119 0.0
0.5823462605476379 0.5357381105422974 0.0
0.6414651870727539 0.5365630984306335 0.0
0.5220622420310974 0.5365630984306335 0.0
0.4629422128200531 0.535739541053772 0.0
0.3435409665107727 0.5357455015182495 0.0
0.4026572108268738 0.5365669131278992 0.0
0.21006634831428528 0.8590372204780579 0.0
1.7943172454833984 0.8627070188522339 0.0
0.06134982034564018 0.7191494703292847 0.0
1.938650131225586 0.7191494703292847 0.0
1.634666085243225 0.7584379315376282 0.0
0.3355695903301239 0.8387951850891113 0.0
1.537941336631775 0.7633647918701172 0.0
1.9670078754425049 0.574067234992981 0.0
0.032992132008075714 0.574067234992981 0.0
1.6862140893936157 0.5314788222312927 0.0
1.6272135972976685 0.5317342281341553 0.0
1.5077245235443115 0.5309156775474548 0.0
1.5668202638626099 0.5316618084907532 0.0
1.7466963529586792 0.5298213958740234 0.0
1.4473658800125122 0.5297333002090454 0.0
1.804386019706726 0.5275400876998901 0.0
1.9283779859542847 0.5282225012779236 0.0
1.8656879663467407 0.5267112255096436 0.0
0.13432854413986206 0.5271331071853638 0.0
0.07162196189165115 0.5282225012779236 0.0
0.25373148918151855 0.527070939540863 0.0
0.19419340789318085 0.5297109484672546 0.0
0.31349387764930725 0.5272363424301147 0.0
0.37313446402549744 0.5270199179649353 0.0
0.4329495429992676 0.5274069309234619 0.0
0.49253740906715393 0.5270196795463562 0.0
0.5523557066917419 0.5274024605751038 0.0
1.3898069858551025 0.5277745127677917 0.0
1.3283581733703613 0.5270196795463562 0.0
0.6119403839111328 0.5270196795463562 0.0
1.2685397863388062 0.5274024605751038 0.0
0.6717586517333984 0.5274024605751038 0.0
0.7313433289527893 0.5270196795463562 0.0
1.20895516872406 0.5270196795463562 0.0
0.7911616563796997 0.5274024605751038 0.0
0.8507462739944458 0.5270196795463562 0.0
1.1491369009017944 0.5274024605751038 0.0
1.0895521640777588 0.5270196795463562 0.0
0.9105646014213562 0.5274024605751038 0.0
0.9701492786407471 0.5270196795463562 0.0
1.0297338962554932 0.5274024605751038 0.0
1.4776118993759155 0.5259945392608643 0.0
1.597015619277954 0.5255197882652283 0.0
1.7164177894592285 0.525999903678894 0.0
1.6834615468978882 0.8477573990821838 0.0
1.5822722911834717 0.6086509227752686 0.0
0.20459823310375214 0.6270732283592224 0.0
1.8037469387054443 0.6209055185317993 0.0
0.09990309923887253 0.8589919805526733 0.0
1.9000968933105469 0.8589919805526733 0.0
1.75603187084198 0.5789161324501038 0.0
0.10896337777376175 0.5982794761657715 0.0
1.8910366296768188 0.5982794761657715 0.0
1.4950518608093262 0.605266273021698 0.0
1.7049394845962524 0.6007562279701233 0.0
1.4387125968933105 0.5775743722915649 0.0
1.489302158355713 0.851039469242096 0.0
0.15732239186763763 0.5961292386054993 0.0
1.8436260223388672 0.5944437384605408 0.0
0.4399496018886566 0.6259797215461731 0.0
1.022565245628357 0.6257523894309998 0.0
[...]
POINT_DATA 348
SCALARS Psi double
LOOKUP_TABLE default
1.08789847450597
1.0
1.0
1.076668469256718
1.0877880062309258
1.087545110472745
1.0891468084441325
1.093872805577541
1.10335107602863
1.1418217491790688
1.0
1.0
1.0
1.0
1.0
1.0
1.0
1.0
1.0
1.0
1.0
1.1342685463948818
1.0942751242410054
1.0844750354832389
1.0798819113724738
1.0777145537984174
1.0768590541921017
1.087981289090258
1.08671187372042
1.0848223047273582
1.0824207999613393
1.0794798105857066
1.0760237479536943
1.072121873732919
1.0678672938766611
1.063383460786145
1.0587584764217266
1.0540920620729508
1.0494630468911008
1.0449565223380213
1.0406243933957393
1.036494424835814
1.0325996192882978
1.0289672844692777
1.0256109400018112
1.0225183845121
1.0196944968265884
1.0171381906738177
1.014844862038504
1.012790584415493
1.0109687791868383
1.0093691715632616
1.0079826246136034
1.0067887562647075
1.0057803759761819
1.0049494028552433
1.0042890027965985
1.0037866646421714
1.00343829931944
1.0032411995663582
1.0031934442643597
1.0032914481787851
1.0035346311378792
1.0039285742437152
1.0044762170593469
1.0051807818985998
1.0060462357465203
1.0070859529073297
1.0083062724647176
1.00971447000345
1.0113162605272015
1.0131345528460916
1.015174058034615
1.017430970049595
1.0199346785758332
1.0226764930903562
1.0256555034857482
1.028872214843799
1.032324068251747
1.0359903891851767
1.0398395377929324
1.0438338440272126
1.047925536345366
1.0520543032563472
1.0561439082957065
1.0601072579919018
1.0638381740188916
1.0672402127749114
1.070204758710145
1.0726291927368583
1.0744756476863795
1.075749127457765
1.0764613444358553
1.046786711109801
1.0518854974995828
1.0201199545675868
1.0058086488407083
1.0016730890734338
1.0036439487146418
1.0139159671410438
1.0733682570847909
1.0821127466395883
1.0311074484643272
1.0635343109925395
1.0566896057906339
1.0425530035948634
1.0268241535059406
1.015624362388653
1.0084497788028963
1.0043633587496674
1.0028457867719962
1.0030421303406594
1.0054010944042726
1.010298851892678
1.0190457071423247
1.0762815970209125
1.0856765450456933
1.0292513434326507
1.0445295116976212
1.065908391886524
1.0740341916067915
1.0030690600140422
1.0045811566258027
1.0038189305413285
1.0086117114271975
1.0070315646228003
1.0132384594374468
1.0232041804419265
1.0157540903960773
1.0374860201992213
1.0554784179710446
1.0719808302860907
1.0811616401265627
1.0372069616076542
1.078243879475669
1.086358019489173
1.053672817276605
1.0235734735174584
1.0130768691662886
1.0652546100950444
1.003197052473364
1.0035798881939022
1.0051657431282517
1.0063427129975913
1.0098477968558586
1.0118732770508037
1.0179114426602272
1.030094746612329
1.0464794892481353
1.0356947694516392
1.0123546184432008
1.0031387426966225
1.0079927420497727
1.0019375177827419
1.0902638557374733
1.080784317872876
1.0226367967518857
1.0445797931519296
1.076648652992546
1.086929774230565
1.045499356402947
1.0301804044162548
1.0004324779457605
1.062223399494696
1.0182593122281818
1.0105238643737897
1.0014801910947702
1.0321300518411367
1.0494026491768818
1.0022866924231335
1.002832583245011
1.0035487593326458
1.0056184817136287
1.0068375194664383
1.0105844966849535
1.0140169693417622
1.019584624620756
1.0716959174673673
1.0635402041395
1.0033690888748108
1.0005515289266853
1.0019091530082
1.0044737988318357
1.00117707948197
1.0738826786535765
1.0689326686854794
1.0837058532099246
1.0778577788648616
1.0080518454117162
1.0609556648017093
1.0698224662034048
1.0035449095532367
1.0031568981137398
1.003351435571423
1.0041283491625261
1.0045480023598405
1.0061844091931162
1.0075849559334455
1.0055370177882323
1.0085721333134148
1.011722071882687
1.0104033157151582
1.0139270178230444
1.0208731770422832
1.0158334216380065
1.0270743050417905
1.034252173226514
1.05150542919402
1.0425620823575645
1.039556706561169
1.0362112339411382
1.098043592003948
1.0884747659977796
1.0302226293673729
1.0266177484462509
1.0193764487888135
1.0777981806245123
1.086996083617976
1.0498144934645957
1.0417081050562251
1.02711533591043
1.033926273625976
1.0581499446395173
1.0211277923839086
1.0654241818172
1.0754785720491977
1.0715896555248714
1.0810291667557683
1.0859076136182828
1.065560421402981
1.0740717861641802
1.0562842958540029
1.0470323712780345
1.0383626599149678
1.0306044752126688
1.0238980839155039
1.016320485811862
1.0121235364308492
1.0182792587008214
1.0089275203724688
1.0137006778724826
1.0100775781271025
1.0065003902890737
1.0073102832354048
1.0053049710576267
1.004773307365995
1.0036843055086517
1.003987408849799
1.0032948803015034
1.0031996899318771
1.0240373575830997
1.0377827111539268
1.054027665597282
1.0247321279254848
1.0340237284796412
1.0720977954054487
1.0654174776673948
1.0766798885028217
1.069455570011383
1.0590427058657959
1.0841870038585006
1.0751055971260208
1.0242340643882328
1.0512398238740777
1.0196470454204358
1.0091319940555095
1.0790605294258844
1.0704032401574444
1.0344440063444547
1.002701771723598
1.0033116066656733
1.0039833364088648
1.0061442472407054
1.0075903524987109
1.011737989708503
1.013196772197079
1.0208948219765537
1.0530712580074573
1.026904450074581
1.0769456125866737
1.0853521982253835
1.0490327200727287
1.032978082811579
1.0415769128203352
1.0531510677116986
1.0023830257255473
1.0026693188059828
1.0039418911339069
1.0050219755396776
1.0079147626330471
1.0097441058481194
1.0144741786153455
1.0255108295521773
1.0411378679622634
1.1079720339973225
1.099286006036108
1.0766662395484223
1.0879553704916434
1.060763065408487
1.0029734870246414
1.0032515757372231
1.0031706622362657
1.0612209313494618
1.0037527086787827
1.0043770222432378
1.005600346258442
1.005364279887341
1.006900865355779
1.008344669318717
1.0107080771132515
1.0101583380859582
1.0127990591733549
1.0154620518409103
1.019279423428552
1.0265465388357509
1.068074896958681
1.0320716499158782
1.0420100803881833
1.0488854790193198
1.0174362726641597
1.0457873258269637
1.0304818268433602
1.0386471657762608
1.0014570165755823
1.021758311028986
1.0389659103823403
1.0837777927920875
1.0744046642619767
1.0002569121773657
1.028206227624435
1.0692428658327258
1.0781093475386256
1.0039401956854817
1.0875215093191264
1.0771331067685588
1.0872136409914965
1.0783251134841316
1.0690638753648884
1.0624278431760266
1.0620060165735503
1.0185975169907728
1.001053800772166
1.0163453081960296
1.0065916817528355
1.0761908357874899
1.0872104888629202
1.0528187222834942
1.0469710938931782

SCALARS Omega double
LOOKUP_TABLE default
4.100276591394175
-10.327730795437672
-14.268649563400242
0.1321785705711801
4.492515426469081
-2.683794553309745
-4.473557660636012
3.542292223090679
1.0314781535196846
20.842645460337366
-8.18867520115568
-0.4094725223275748
-0.8985275653980472
-0.2342139594340862
-0.11369097867911543
-0.030612111198298934
-0.11116900933110442
-0.1864350413175414
-0.6569892800305418
-0.6110339256946813
-6.115745385052599
17.94367058510841
3.5124636782395733
-1.0379081270119033
0.1453482836505061
0.033512257696131996
-0.32203140247866774
2.1113617298247385
1.091836779169491
0.714302174088957
0.5849518485725762
0.5327239424927214
0.507078022978104
0.47819019534562474
0.4415368869516888
0.3974117805680389
0.34773268551874115
0.296246395666248
0.2449789202448998
0.19618313349455166
0.1508090029276368
0.10952048226018729
0.07261347351034016
0.040333453583533845
0.012569702997952122
-0.011155351324272835
-0.03108181974961539
-0.0475245906209603
-0.060811397855662815
-0.07154132508732602
-0.08001355260918198
-0.08658310711332756
-0.0915138978421808
-0.09520530149057627
-0.0978514933666132
-0.09967300324362635
-0.10081314042844039
-0.10146383312110888
-0.10170958671266227
-0.10162686876587337
-0.1012479609281379
-0.10059290948030526
-0.09964829273539534
-0.09834303165786813
-0.09661228011672188
-0.09434272394218915
-0.09142625853024856
-0.08763222667742697
-0.08279843106758172
-0.07668844522461016
-0.06909527063618087
-0.059547317285594925
-0.0478029032449112
-0.03366497388080329
-0.016472751707934198
0.003910499117930433
0.027743081708249448
0.05530912054061621
0.08677693338328828
0.12203690492453688
0.16057613136302634
0.20168960504538458
0.24401350578247047
0.28593508887115837
0.32478694600517544
0.3576013700942163
0.3795471549349555
0.3852480049251655
0.3706556219679016
0.3300023908611601
0.26103410294053536
0.16510919313917655
0.06635078647495815
0.31510667870905196
0.339362779256806
-0.11646412749162444
-0.13091185667283772
-0.10570544243943819
-0.11366535237287254
-0.12385496956450709
0.7178328075971648
0.8448250621499496
0.046919300115622294
0.4698816282083468
0.408124747179911
0.1669496075599107
0.00289754717848339
-0.073952126300639
-0.10007944144689208
-0.10519634427902588
-0.10385548594902484
-0.10230780757481611
-0.0984363174877855
-0.08460653283487597
-0.04068562453787528
0.3065098106915193
0.09488991775478266
0.05186250843218706
0.21730105434355415
0.4399174100876712
0.5280590909253285
-0.10168073739026158
-0.09715105263736769
-0.1023406554631066
-0.08372762101922468
-0.09659159908855817
-0.07320444395063999
-0.011171932714191224
-0.048931336377294236
0.11627850663635367
0.32074728071794517
0.4093844304736174
0.490851970541662
0.1335210953515261
2.24906012006086
2.5274009286819785
0.31560108615883015
0.0072441767366837
-0.3187831354472586
0.4342894838826791
-0.10231092621306145
-0.09981692805646088
-0.10036161190807494
-0.09157790154817455
-0.08711259274507263
-0.06873062134815332
-0.04655457285137216
0.046334058933287105
0.21351020278620197
0.04064205045412608
-0.14344316639285523
-0.11680355787766523
-0.12342029435443837
-0.10619346693255534
0.9676272328601813
0.5747828401967647
-0.031028869522393483
0.23799457140348051
0.14049951445201667
0.4503874092266681
0.2219093738222914
0.06523625353904042
-0.09857906645017393
0.3875232242064326
-0.030069434430110967
-0.41888398811007227
-0.15081365778575745
0.03255470394423163
0.27537492140973113
-0.10461616328530556
-0.10807518479855946
-0.10488149130077315
-0.11268902260198606
-0.10497213967564986
-0.11310599821540654
-0.08190653119903786
-0.07324263405165204
0.8361155033635806
0.692307188827582
-0.2008834015382669
-0.0979626460533066
-0.14249513301446795
-0.2089131399879868
-0.1146443076102261
0.32160350023398454
0.3990826750060385
0.5432661528293672
0.5181516061357042
-0.3016400703872608
0.37625886709664513
0.4676878473962461
-0.10188407619298945
-0.10167070348855106
-0.1003842107874798
-0.09788440006717825
-0.10072930313790997
-0.09731626897475915
-0.08620622829071155
-0.09350530320229869
-0.09023276548396933
-0.07756313163024159
-0.07426981169781302
-0.05627397507674389
-0.024308275528069617
-0.05649859199721244
0.02302009819524933
0.08697762294184892
0.2689062158638913
0.17062922353352122
-0.6191909294933745
-0.5147470841185318
2.3294452251182283
1.9777754326560872
-0.011509735356078342
-0.23816940700404118
-0.12062838988518862
0.16690677657397718
-1.0217322041334487
0.2655262803343698
0.18017280045968695
0.03920614717984088
0.10148348527563372
0.34662514697323193
-0.00856666896583564
0.39209163257044216
0.218606441861397
0.3652351841198918
0.5338230402318873
0.7124939981812318
0.4234154728682849
0.49727144014911207
0.32227161888310085
0.21880357137076814
0.12752218731819098
0.05381235952528446
-0.0016606519122358116
-0.041427650440883076
-0.0655403111876895
-0.04122242054666803
-0.08056138242894317
-0.06760899315518112
-0.08431587012857644
-0.09007820840417624
-0.09403104485278893
-0.0991924107435466
-0.09582606823538319
-0.09921886259881735
-0.10139610466887591
-0.10184407579733694
-0.1010833229506355
0.013962250853533682
0.13979943912470327
0.30760252635839375
-0.26389127315918265
0.09725913339289843
0.6218180596334303
0.533779865187487
2.9039953778005803
2.1556482072645045
0.3856460207462873
0.4315959595350439
0.4734073822380283
0.005161758007052297
0.30623706254418337
-0.024410384893829917
-0.28101069591744443
0.5921227818729136
0.5085895250226867
0.07552629316391293
-0.10322296887098412
-0.10472893921136678
-0.10082993818612998
-0.10385718315539755
-0.0929965154927599
-0.08998797085298106
-0.07147385155585252
-0.041828838953602676
0.3101615018926409
0.03413599037738825
1.252325461261586
1.4785748227898154
0.2651621003460442
0.09036934035848339
0.18033095470761804
0.4136173790002567
-0.10537196689423436
-0.1043347552817591
-0.11016426595791595
-0.10444550632046538
-0.11200116001186554
-0.09772746947511393
-0.09915262606678749
-0.028490043249774413
0.1442310633779274
5.598342302591488
5.4033310216284764
-0.012855761298917502
2.097569030709818
0.48885287031239005
-0.10265928972343512
-0.10312383633734487
-0.10135194605081091
0.4019968996818243
-0.09983805537784103
-0.10270297646633278
-0.10100566887675987
-0.09587048404313654
-0.09124247913883703
-0.09487819302462289
-0.08672286982172545
-0.07944071603063839
-0.06713690872291003
-0.06531830848499975
-0.042286178496018255
0.010999425360837858
0.48867830817144975
0.06039491839511565
0.1628720219155409
0.24370900185739852
-0.06902117037051844
0.22262509022855123
0.06938332803647587
0.14914127614808267
-0.10985028243114318
-0.16829937846783408
0.152249106006073
0.3821709177771793
0.37518986524068987
-0.0890014960471831
0.032410881779007875
0.44000536699637677
0.5321896093694106
-0.13409298090598876
0.46689768371698304
0.011219789281788663
-0.5101373601030181
0.3408516063698181
1.0203185730893056
0.9271598518384505
0.3733238666512333
-0.026222501826320344
-0.17256911002759712
-0.05296720420192793
-0.16617295466289375
0.11856080318547904
1.2482118262413684
0.5729328676142693
-1.216772112489264

SCALARS Vx_analytic double
LOOKUP_TABLE default
4.100276591394175
-10.327730795437672
-14.268649563400242
0.13210637964677038
4.492515426469081
-2.683794553309745
-4.473557660636012
3.542292223090679
1.0314781535196846
20.842645460337366
-8.18867520115568
-0.4094725223275748
-0.8985275653980472
-0.2342139594340862
-0.11369097867911543
-0.030612111198298934
-0.11116900933110442
-0.1864350413175414
-0.6569892800305416
-0.6110339256946813
-6.115745385052599
17.94367058510841
3.5132646958978277
-1.015770522164452
0.1475555398781414
0.03451969899758518
-0.3200761990889789
2.1113617298247385
1.091836779169491
0.714302174088957
0.5849518485725762
0.5327239424927214
0.507078022978104
0.47819019534562474
0.4415368869516888
0.3974117805680389
0.34773268551874115
0.296246395666248
0.2449789202448998
0.19618313349455166
0.1508090029276368
0.10952048226018729
0.07261347351034016
0.040333453583533845
0.012569702997952122
-0.011155351324272835
-0.03108181974961539
-0.0475245906209603
-0.060811397855662815
-0.07154132508732602
-0.08001355260918198
-0.08658310711332756
-0.0915138978421808
-0.09520530149057627
-0.0978514933666132
-0.09967300324362635
-0.10081314042844039
-0.10146383312110888
-0.10170958671266227
-0.10162686876587337
-0.10124782764211088
-0.10059294203362064
-0.0996484550412108
-0.09834350189312256
-0.09661312131104108
-0.09434451871111298
-0.09142861869738446
-0.08763597043080569
-0.08280334278235957
-0.07669661379018587
-0.06910496134243581
-0.05956144850847328
-0.04782298753500441
-0.033672460391761375
-0.016485391448107452
0.0038884095136710235
0.027721518388232516
0.05529747411758733
0.08676827990264052
0.12202034388445326
0.16057453055958165
0.20170954643294317
0.24406643450497137
0.2860015838020824
0.32489654469199314
0.3577128693755597
0.379727856930109
0.38560071590759476
0.37102831606777914
0.3304074131029791
0.26136830543696615
0.16535185060645327
0.06630766750280177
0.3072890282173012
0.3371706145201877
-0.11573714655961659
-0.13079943947852515
-0.10570535512206695
-0.11372780229819189
-0.12456353024120842
0.7269997387827497
0.8347617254266053
0.046007270507275926
0.4679910115478262
0.4105073469611547
0.16692146289264065
0.0031366688269805374
-0.07378379844824148
-0.10001567391346623
-0.10518127230875568
-0.10385296486168358
-0.10231052802473922
-0.09846832163626883
-0.08473012843579132
-0.041016717921141595
0.30863173663721155
0.10164156815024895
0.051537871132283336
0.21754434337314418
0.44228040793569534
0.5270414712544229
-0.10168036654456665
-0.09715932321953924
-0.10233728463622174
-0.08377000668080042
-0.09657556247561468
-0.07315791419396969
-0.01110232765842678
-0.0490750793250828
0.11625277765903651
0.3202582298925784
0.41159595865452114
0.4921555331204025
0.13340677181791297
2.2562437466209313
2.4658842148368114
0.3162010447837001
0.007045941755537537
-0.3199528326133442
0.4335301034141432
-0.10230954769167744
-0.09981884025712942
-0.10035371803945765
-0.09159326976244238
-0.08708221542663573
-0.06878611534005677
-0.0464833034329914
0.046411186950860654
0.21338885459437518
0.04151052174478872
-0.14299730792677934
-0.11677288635682538
-0.12376119510918851
-0.10620445994247434
0.8926160215198399
0.5831067609990037
-0.03178275469328519
0.23793720672186908
0.14188665746028634
0.4592261061056685
0.2220384809824682
0.06507796700009008
-0.09857956795379327
0.38847507772113193
-0.03015694243413938
-0.41751390884769424
-0.15089691667847352
0.03283307489617993
0.27463727441359936
-0.10461649294976072
-0.10806434631825913
-0.104906101927683
-0.11263371909163854
-0.10508948353364665
-0.11291175051972539
-0.08229300621434338
-0.07287632478278092
0.828237082662449
0.6979119990899869
-0.20066822436342602
-0.09797116703422296
-0.14243482955619818
-0.2098549195378459
-0.11468425978160911
0.32291998604978317
0.40046616036059496
0.5455847679285035
0.518208742767577
-0.30079309657344255
0.37596233365201637
0.46729198944508027
-0.10188333044501793
-0.10167020730271943
-0.10038502889988603
-0.09788823853904516
-0.1007276479654875
-0.09731253720793254
-0.08622901540598993
-0.09351735547536508
-0.09022641065546456
-0.07755275574444921
-0.07432039419818358
-0.0563509974389978
-0.02429735122970337
-0.05648791947082824
0.02301212412513146
0.0869455979819112
0.26873183033967396
0.1705322541890693
-0.6002055555272529
-0.5404004018224774
2.332489161029927
1.995213323703257
-0.014257358255933144
-0.23526584134132214
-0.1219607855527864
0.16889580909677385
-1.0064285288176282
0.2657657157812473
0.18013718698492134
0.039050865951914766
0.1013556426032534
0.3473621975755931
-0.008684319440179698
0.39328239635405704
0.21971500681239844
0.36633678585705
0.534750676680491
0.7167242441767601
0.42311179378238145
0.4970539901842837
0.32210796456691576
0.2187517832993029
0.1275192138203546
0.053843932020357504
-0.0016322894156452635
-0.0415119115458909
-0.06558852476561489
-0.041193178594090635
-0.08058918604703005
-0.06759113276570528
-0.08430334730792192
-0.09009150162224337
-0.09402489190290321
-0.09918920922435816
-0.09583184571412763
-0.09922064607488422
-0.10139490964670916
-0.10184361019673818
-0.10108341548977062
0.013839356923716907
0.13970756573473314
0.30797848305318976
-0.2698286969791641
0.09687450540644942
0.618130260090856
0.5377275131528998
2.8036412452521806
1.9883210013772712
0.38716987918950285
0.42802012396583133
0.47752159428426
0.004780602872838709
0.3069585322817769
-0.024649601423684084
-0.2824246628769819
0.5891893005311802
0.5124021151996152
0.07569952319311583
-0.10322246035001126
-0.10472312726922531
-0.10084273200434664
-0.10382419511778698
-0.09306743179816421
-0.08988417114962965
-0.0716621431285104
-0.04160908275000639
0.3094423826461396
0.03395512404149621
1.2650001535189495
1.4602339633005113
0.2655939521578432
0.09019050065072927
0.18038623594137343
0.41485591046493264
-0.10536896234981541
-0.10433930004834276
-0.11013665881413401
-0.10448760294472695
-0.1118919471919827
-0.09790551172718448
-0.09883423321331374
-0.02803120503431943
0.1441547257630015
5.320999423523581
5.209113620693166
-0.012093327462860251
2.094004461101064
0.48593036170382903
-0.10265782144982692
-0.10312143452516297
-0.10135356153318856
0.40109114383607625
-0.09984342183404211
-0.10269515363222624
-0.10099102634661403
-0.0958910425407403
-0.09127527610033363
-0.09484443757310865
-0.08667060520463538
-0.07952305266263411
-0.06724861034599112
-0.06522696169890081
-0.042173116017369235
0.011130154363569351
0.48724962629651547
0.06049584217105423
0.16281780514056882
0.2434373959216557
-0.06948058667457295
0.222663435419323
0.0692583377052009