# vtk DataFile Version 1.0
2D Simulation C++
ASCII
DATASET UNSTRUCTURED_GRID
FIELD FieldData 1
NODES 1 2 int
348 601

POINTS 348 double
0.0 0.5 0.0
0.0 1.0 0.0
2.0 1.0 0.0
2.0 0.5 0.0
0.0 0.528801679611206 0.0
0.0 0.564507782459259 0.0
0.0 0.6110168099403381 0.0
0.0 0.6721802353858948 0.0
0.0 0.7528436183929443 0.0
0.0 0.8593378663063049 0.0
0.16666941344738007 1.0 0.0
0.3333356976509094 1.0 0.0
0.5000020265579224 1.0 0.0
0.6666678786277771 1.0 0.0
0.8333337306976318 1.0 0.0
1.0 1.0 0.0
1.1666662693023682 1.0 0.0
1.3333321809768677 1.0 0.0
1.4999979734420776 1.0 0.0
1.6666642427444458 1.0 0.0
1.8333306312561035 1.0 0.0
2.0 0.8593378663063049 0.0
2.0 0.7528436183929443 0.0
2.0 0.6721802353858948 0.0
2.0 0.6110168099403381 0.0
2.0 0.564507782459259 0.0
2.0 0.528801679611206 0.0
0.029850948601961136 0.5 0.0
0.05970168858766556 0.5 0.0
0.08955242484807968 0.5 0.0
0.1194031685590744 0.5 0.0
0.14925390481948853 0.5 0.0
0.17910465598106384 0.5 0.0
0.20895539224147797 0.5 0.0
0.2388061285018921 0.5 0.0
0.2686568796634674 0.5 0.0
0.29850760102272034 0.5 0.0
0.32835835218429565 0.5 0.0
0.35820910334587097 0.5 0.0
0.3880598247051239 0.5 0.0
0.4179105758666992 0.5 0.0
0.44776129722595215 0.5 0.0
0.47761204838752747 0.5 0.0
0.5074627995491028 0.5 0.0
0.5373135209083557 0.5 0.0
0.5671642422676086 0.5 0.0
0.5970150232315063 0.5 0.0
0.6268657445907593 0.5 0.0
0.6567164659500122 0.5 0.0
0.6865672469139099 0.5 0.0
0.7164179682731628 0.5 0.0
0.7462686896324158 0.5 0.0
0.7761194705963135 0.5 0.0
0.8059701919555664 0.5 0.0
0.8358209133148193 0.5 0.0
0.865671694278717 0.5 0.0
0.89552241563797 0.5 0.0
0.9253731369972229 0.5 0.0
0.9552239179611206 0.5 0.0
0.9850746393203735 0.5 0.0
1.0149253606796265 0.5 0.0
1.0447760820388794 0.5 0.0
1.0746268033981323 0.5 0.0
1.1044776439666748 0.5 0.0
1.1343283653259277 0.5 0.0
1.1641790866851807 0.5 0.0
1.1940298080444336 0.5 0.0
1.2238805294036865 0.5 0.0
1.2537312507629395 0.5 0.0
1.2835819721221924 0.5 0.0
1.3134328126907349 0.5 0.0
1.3432835340499878 0.5 0.0
1.3731342554092407 0.5 0.0
1.4029849767684937 0.5 0.0
1.4328356981277466 0.5 0.0
1.4626864194869995 0.5 0.0
1.492537260055542 0.5 0.0
1.522387981414795 0.5 0.0
1.5522387027740479 0.5 0.0
1.5820894241333008 0.5 0.0
1.6119401454925537 0.5 0.0
1.6417908668518066 0.5 0.0
1.6716417074203491 0.5 0.0
1.701492428779602 0.5 0.0
1.731343150138855 0.5 0.0
1.761193871498108 0.5 0.0
1.7910445928573608 0.5 0.0
1.8208953142166138 0.5 0.0
1.8507460355758667 0.5 0.0
1.8805968761444092 0.5 0.0
1.910447597503662 0.5 0.0
1.940298318862915 0.5 0.0
1.970149040222168 0.5 0.0
1.7358819246292114 0.7499510645866394 0.0
0.2656642198562622 0.7486277222633362 0.0
0.49981194734573364 0.737183690071106 0.0
0.74151611328125 0.7359843254089355 0.0
0.9774143695831299 0.7371892929077148 0.0
1.201690912246704 0.7367381453514099 0.0
1.447761058807373 0.7383390665054321 0.0
1.8591958284378052 0.6421071290969849 0.0
0.14080412685871124 0.6421071290969849 0.0
1.588537573814392 0.6783608794212341 0.0
0.2553686201572418 0.6221352219581604 0.0
1.7466964721679688 0.6278358101844788 0.0
0.38199201226234436 0.6273008584976196 0.0
0.5013589859008789 0.6272794008255005 0.0
0.6207823157310486 0.6272526383399963 0.0
0.7401852607727051 0.627252459526062 0.0
0.8595882654190063 0.6272523999214172 0.0
0.9701492786407471 0.6212864518165588 0.0
1.0807102918624878 0.6272523999214172 0.0
1.2001131772994995 0.6272523999214172 0.0
1.3195161819458008 0.6272523999214172 0.0
1.4488563537597656 0.6310953497886658 0.0
1.9247323274612427 0.5706554055213928 0.0
0.07526770234107971 0.5706554055213928 0.0
1.5377081632614136 0.5910930037498474 0.0
1.6566967964172363 0.5934624075889587 0.0
1.8074009418487549 0.5708622932434082 0.0
0.1940300166606903 0.5737577676773071 0.0
1.0286364555358887 0.5665481686592102 0.0
1.14803946018219 0.5665481686592102 0.0
0.9116620421409607 0.5665481686592102 0.0
1.2674424648284912 0.5665481686592102 0.0
0.7922590970993042 0.5665481686592102 0.0
0.6728560328483582 0.5665482878684998 0.0
0.5534531474113464 0.5665481686592102 0.0
1.3892061710357666 0.5727682709693909 0.0
0.43402159214019775 0.5665869116783142 0.0
0.3146642744541168 0.5667200088500977 0.0
1.8656742572784424 0.5607567429542542 0.0
0.1343258023262024 0.5607567429542542 0.0
1.5970147848129272 0.5642029047012329 0.0
1.8783670663833618 0.7786769866943359 0.0
0.12163297086954117 0.7786769866943359 0.0
1.7164177894592285 0.562579333782196 0.0
1.4776118993759155 0.5620538592338562 0.0
1.5857784748077393 0.867691159248352 0.0
0.25373148918151855 0.5588531494140625 0.0
0.9701492786407471 0.5582930445671082 0.0
1.0895521640777588 0.5582930445671082 0.0
0.8507462739944458 0.5582930445671082 0.0
1.20895516872406 0.5582930445671082 0.0
0.7313433289527893 0.5582930445671082 0.0
1.3283581733703613 0.5582930445671082 0.0
0.6119403839111328 0.5582930445671082 0.0
0.49253740906715393 0.5582930445671082 0.0
0.37313446402549744 0.5582956075668335 0.0
0.36864349246025085 0.7376502752304077 0.0
0.602456271648407 0.7355343103408813 0.0
0.8441241383552551 0.7366551756858826 0.0
1.3355978727340698 0.7366551160812378 0.0
1.0895521640777588 0.7378703355789185 0.0
0.07051979005336761 0.6486480832099915 0.0
1.9294801950454712 0.6486480832099915 0.0
1.5086064338684082 0.6743985414505005 0.0
1.6785967350006104 0.6649783849716187 0.0
1.9543375968933105 0.5452249050140381 0.0
0.04566239193081856 0.5452249050140381 0.0
1.6567095518112183 0.5496091842651367 0.0
1.53738272190094 0.5491842031478882 0.0
0.91306072473526 0.8965699672698975 0.0
1.7782752513885498 0.5446287989616394 0.0
1.4163299798965454 0.5447981357574463 0.0
0.4287482798099518 0.8945969939231873 0.0
1.2610714435577393 0.8950135707855225 0.0
0.4313095211982727 0.6832783222198486 0.0
0.31561949849128723 0.6858259439468384 0.0
1.029850721359253 0.6781684160232544 0.0
0.9082015752792358 0.6848641633987427 0.0
1.1492537260055542 0.6781684160232544 0.0
0.7886138558387756 0.678956151008606 0.0
1.2709345817565918 0.684736430644989 0.0
0.6685023903846741 0.6868807673454285 0.0
1.4007169008255005 0.6702371835708618 0.0
0.5483440160751343 0.6792802214622498 0.0
0.19808045029640198 0.6887137293815613 0.0
1.797759771347046 0.6853783130645752 0.0
0.6811949610710144 0.8757594227790833 0.0
1.0189321041107178 0.8474968671798706 0.0
0.7922950983047485 0.8446238040924072 0.0
1.3765455484390259 0.8590760827064514 0.0
1.1571698188781738 0.8478953838348389 0.0
1.8954496383666992 0.5359624624252319 0.0
1.8360060453414917 0.5359931588172913 0.0
0.10455036163330078 0.5359624624252319 0.0
0.16417928040027618 0.5353734493255615 0.0
0.5530290007591248 0.8422092199325562 0.0
0.2832632064819336 0.5367912650108337 0.0
0.22469767928123474 0.5394234657287598 0.0
0.9405550956726074 0.5357381105422974 0.0
0.9997434020042419 0.5357381105422974 0.0
1.0600273609161377 0.5365630984306335 0.0
1.1191463470458984 0.5357381105422974 0.0
0.8802711367607117 0.5365630984306335 0.0
0.8211521506309509 0.5357381105422974 0.0
1.2385493516921997 0.5357381105422974 0.0
1.179430365562439 0.5365630984306335 0.0
0.7608681321144104 0.5365630984306335 0.0
0.7017492055892944 0.5357381105422974 0.0
1.2988333702087402 0.5365630984306335 0.0
1.357560396194458 0.5390686392784119 0.0
0.5823462605476379 0.5357381105422974 0.0
0.6414651870727539 0.5365630984306335 0.0
0.5220622420310974 0.5365630984306335 0.0
0.4629422128200531 0.535739541053772 0.0
0.3435409665107727 0.5357455015182495 0.0
0.4026572108268738 0.5365669131278992 0.0
0.21006634831428528 0.8590372204780579 0.0
1.7943172454833984 0.8627070188522339 0.0
0.06134982034564018 0.7191494703292847 0.0
1.938650131225586 0.7191494703292847 0.0
1.634666085243225 0.7584379315376282 0.0
0.3355695903301239 0.8387951850891113 0.0
1.537941336631775 0.7633647918701172 0.0
1.9670078754425049 0.574067234992981 0.0
0.032992132008075714 0.574067234992981 0.0
1.6862140893936157 0.5314788222312927 0.0
1.6272135972976685 0.5317342281341553 0.0
1.5077245235443115 0.5309156775474548 0.0
1.5668202638626099 0.5316618084907532 0.0
1.7466963529586792 0.5298213958740234 0.0
1.4473658800125122 0.5297333002090454 0.0
1.804386019706726 0.5275400876998901 0.0
1.9283779859542847 0.5282225012779236 0.0
1.8656879663467407 0.5267112255096436 0.0
0.13432854413986206 0.5271331071853638 0.0
0.07162196189165115 0.5282225012779236 0.0
0.25373148918151855 0.527070939540863 0.0
0.19419340789318085 0.5297109484672546 0.0
0.31349387764930725 0.5272363424301147 0.0
0.37313446402549744 0.5270199179649353 0.0
0.4329495429992676 0.5274069309234619 0.0
0.49253740906715393 0.5270196795463562 0.0
0.5523557066917419 0.5274024605751038 0.0
1.3898069858551025 0.5277745127677917 0.0
1.3283581733703613 0.5270196795463562 0.0
0.6119403839111328 0.5270196795463562 0.0
1.2685397863388062 0.5274024605751038 0.0
0.6717586517333984 0.5274024605751038 0.0
0.7313433289527893 0.5270196795463562 0.0
1.20895516872406 0.5270196795463562 0.0
0.7911616563796997 0.5274024605751038 0.0
0.8507462739944458 0.5270196795463562 0.0
1.1491369009017944 0.5274024605751038 0.0
1.0895521640777588 0.5270196795463562 0.0
0.9105646014213562 0.5274024605751038 0.0
0.9701492786407471 0.5270196795463562 0.0
1.0297338962554932 0.5274024605751038 0.0
1.4776118993759155 0.5259945392608643 0.0
1.597015619277954 0.5255197882652283 0.0
1.7164177894592285 0.525999903678894 0.0
1.6834615468978882 0.8477573990821838 0.0
1.5822722911834717 0.6086509227752686 0.0
0.20459823310375214 0.6270732283592224 0.0
1.8037469387054443 0.6209055185317993 0.0
0.09990309923887253 0.8589919805526733 0.0
1.9000968933105469 0.8589919805526733 0.0
1.75603187084198 0.5789161324501038 0.0
0.10896337777376175 0.5982794761657715 0.0
1.8910366296768188 0.5982794761657715 0.0
1.4950518608093262 0.605266273021698 0.0
1.7049394845962524 0.6007562279701233 0.0
1.4387125968933105 0.5775743722915649 0.0
1.489302158355713 0.851039469242096 0.0
0.15732239186763763 0.5961292386054993 0.0
1.8436260223388672 0.5944437384605408 0.0
0.4399496018886566 0.6259797215461731 0.0
1.022565245628357 0.6257523894309998 0.0
[...]
POINT_DATA 348
SCALARS Psi double
LOOKUP_TABLE default
1.0879538350073292
1.0
1.0
1.0767858194475952
1.0878430053430121
1.0875987479574258
1.089197310331385
1.0939166854607927
1.1033830739648698
1.141836848524626
1.0
1.0
1.0
1.0
1.0
1.0
1.0
1.0
1.0
1.0
1.0
1.1342955905712055
1.0943368647910112
1.0845632964285123
1.0799862194898895
1.0778275369009909
1.076975615863509
1.0880370648359057
1.0867697536560357
1.084883868528704
1.082487490805631
1.079553062534863
1.07610485751141
1.072212055746166
1.0679675614225268
1.0634948125441699
1.0588817452698283
1.0542279025256134
1.0496119429851059
1.0451189395437182
1.0408005982772313
1.0366845065635955
1.0328035076796598
1.0291849193514095
1.0258420798356438
1.0227626052078214
1.0199512485421047
1.0174069796089953
1.0151250542398025
1.013081375314252
1.0112692921796722
1.0096786367322823
1.0083001802029485
1.0071133760095985
1.006111010148888
1.0052851438728247
1.0046289004793598
1.0041296207778776
1.0037832341662318
1.0035872017836729
1.003539633108409
1.0036368105133586
1.0038781285889398
1.0042693519764927
1.0048134735863197
1.0055135893288665
1.0063736878352532
1.0074073350132495
1.008620953489581
1.0100217066219594
1.0116153567266755
1.0134250410700767
1.0154555534038645
1.0177027272787926
1.0201965962967703
1.0229283000106895
1.0258969253338235
1.0291031504945272
1.0325445101570407
1.036200434574282
1.0400393042348666
1.044023557729936
1.0481055242152977
1.052225005670658
1.0563058180818288
1.0602609168996233
1.0639841939690238
1.0673794311717542
1.0703378889480768
1.0727571231972688
1.0745993581271294
1.0758695173432962
1.0765795421079511
1.0468664277822444
1.0519411646671482
1.020237761807849
1.0059809897495509
1.0018656718296564
1.0038244339352274
1.014054970651402
1.0734757038464227
1.0821713643504107
1.0312567166609972
1.0636256668239876
1.056822868844761
1.042688707907973
1.0270070919261924
1.0158516957918684
1.0087125567002702
1.0046494616080173
1.0031450439781462
1.0033348665952688
1.0056792509575092
1.0105519823275568
1.0192613016974295
1.0763980377508744
1.0857336544430007
1.0294588833844307
1.0446989382538054
1.066043752548549
1.0741153248669004
1.0034004936941912
1.0049023527949834
1.0041463141849611
1.008909829801335
1.0073396541821442
1.0135124970677971
1.023432381075572
1.0160164644558225
1.0376618328789438
1.0556027971471182
1.072106741969252
1.0812291418496411
1.0374036958362665
1.0782979628485694
1.0863880750644395
1.0538325973140288
1.0238108978678373
1.013112068094862
1.0653565671979501
1.0035308483990217
1.0039104579653537
1.005487770610294
1.0066560709159948
1.0101425319720507
1.0121579464531716
1.018165318276994
1.0302982532799643
1.0466296712587875
1.0357780166345383
1.0124988662656034
1.0033239646157492
1.00815312636359
1.0021263725698055
1.0903123670099668
1.0808823407671098
1.0228091092321894
1.0447141024647024
1.076765653209578
1.0869855173648169
1.045679684640727
1.0304006714074727
1.0004752623807585
1.0623695667931599
1.0185212414195963
1.0105468043881076
1.0015180613808377
1.032259537839686
1.0494936098069247
1.0025387468658074
1.0030757304917164
1.0037922908128494
1.0058514241675338
1.0070569677556234
1.010784989626262
1.0142197267785462
1.019755110497641
1.0717562699168917
1.063641201303353
1.0034181408758005
1.0006307249752804
1.0019847078908297
1.0045253518194213
1.001252122053233
1.0740068341498255
1.0690669846069643
1.0837690333388872
1.0779338900407178
1.008106764211535
1.0610712738796937
1.0699164253924982
1.00388509979977
1.0034991415057823
1.0036918416586524
1.004463627738286
1.0048818850732015
1.0065084983491535
1.0078994636150747
1.005863215703902
1.008881942815374
1.0120145459296779
1.0107027913787123
1.0142091654156782
1.0211209649643955
1.0161045969754043
1.0272958765157676
1.0344469936174114
1.0516461664174368
1.0427291462193349
1.0395734188836119
1.0362361443827655
1.0980814888865986
1.0885491302598955
1.0303139896248126
1.0266512831696302
1.019480990649395
1.0779106816863826
1.0870495668391584
1.0499882297383922
1.0419008280553492
1.0273493204441302
1.03413958111237
1.058306273569447
1.0213828110662253
1.0655660225829218
1.0755993049351549
1.0717191043426333
1.0810984775926311
1.0859664077591473
1.065665258700584
1.074156594028699
1.0564128047423822
1.0471867357795304
1.038544417528623
1.030813578015499
1.024134024070942
1.0165945171366209
1.012415987080685
1.018540026433667
1.0092361602192932
1.0139841036858548
1.0103802729785365
1.0068223157417684
1.0076290491027764
1.0056356642381319
1.0051058626632448
1.0040238473776286
1.0043263430941995
1.003637744077358
1.0035429131171563
1.0242822473310227
1.0379861984438778
1.0541927193203002
1.0247703762369036
1.03421031322709
1.072173394305845
1.0655409358063936
1.0766937911863248
1.0694795386229288
1.05918838755744
1.084246251037797
1.0752206923989023
1.0244495219161214
1.0513929261532637
1.0198920975364147
1.0091841620919562
1.0791293820503738
1.0705263240799416
1.0346033264507686
1.0029987511407594
1.0036055761546385
1.004271557714598
1.0064214948595909
1.0078581594065943
1.011985208910122
1.0134403120236224
1.0211012785848101
1.0531815183957243
1.027128760543469
1.0770303944358421
1.0853980568864
1.0492008335455945
1.0331842357887806
1.0417617397016032
1.0532635704594775
1.002639054385673
1.0029179573955027
1.0041846426320604
1.0052586686645721
1.0081377800940419
1.0099581439359864
1.0146649757092554
1.0256636838373927
1.0412499420475296
1.107997328501773
1.0993330625745081
1.076783613103647
1.0880107016380487
1.060842379333131
1.0032959215377675
1.0035708903370073
1.003489721698279
1.061327161009861
1.0040688529385395
1.004689727664933
1.0059067318296406
1.0056693004615906
1.0071981055332069
1.0086340615314688
1.010985538512993
1.0104376811821125
1.0130668280379083
1.015714565423852
1.0195154547324499
1.0267520197608668
1.0681662649362833
1.0322580308726543
1.042164300408814
1.0490217448696901
1.017619587944818
1.0459711052279548
1.0307062791946588
1.0388123321407
1.001589954812271
1.0218287279025056
1.0391469838606793
1.08383939320113
1.074525205649332
1.0002848702313127
1.0283918011614677
1.0693729382729205
1.0781827412451532
1.0040581767011791
1.0875760039664548
1.0772485196704855
1.0872665700397952
1.0784342881548818
1.0691072364460916
1.0624984544562392
1.0621551267937497
1.0188632278097562
1.001076011621284
1.0165816381871902
1.0067074034390586
1.0763097684490939
1.0872671559473097
1.0528241126131928
1.0469795694732356

SCALARS Omega double
LOOKUP_TABLE default
4.098758729483153
-10.329396144942972
-14.272656198875815
0.13164110314011224
4.492180614801773
-2.6855932940040144
-4.474933472215218
3.5414064236305363
1.0315937866203215
20.84272415941432
-8.190477801493751
-0.412008181888878
-0.9026349227424609
-0.24030988838918663
-0.12083794647281007
-0.038164844618246214
-0.1179553774296528
-0.1926706039978724
-0.6619490259539198
-0.6145090912617337
-6.118504942212516
17.94183712520663
3.5127214063289713
-1.037793580955634
0.1461824158667709
0.03334426074349266
-0.3203840263772976
2.1103708330790796
1.091016657704479
0.7136723314561993
0.5845610499335319
0.5326094221972576
0.5072693307486964
0.4787141434006002
0.44241444558000437
0.398664946642616
0.34937780259780987
0.29829545105373323
0.24743823920839306
0.19905968064779217
0.15410294521805057
0.1132267557979382
0.07672190728707755
0.044835885224256106
0.01745219534120558
-0.00591213824873379
-0.02550061079681478
-0.041623923809567746
-0.05461370355691977
-0.0650740575807146
-0.0733053399597777
-0.0796564556564466
-0.08439349243284709
-0.08792114457457294
-0.09043323415061719
-0.09214328366519751
-0.09319541891471503
-0.09378701459949898
-0.09400131390228267
-0.09390759231830466
-0.09353682999844479
-0.09291470699591896
-0.09202920581540244
-0.09080215515273223
-0.08916721724187605
-0.08701710801780572
-0.08424385637354675
-0.0806099405322583
-0.07595097245064998
-0.0700363805485392
-0.0626586318415382
-0.05333809251957448
-0.04183117357349159
-0.02795697906678749
-0.011030024270861164
0.009078099222418994
0.03262417066869466
0.059897932333005846
0.09107008290109488
0.12603401401430858
0.16427639689850104
0.20509538984263742
0.2471297550320355
0.28877014469927964
0.3273498493941662
0.35990184051400315
0.3815955488181008
0.38706114789588775
0.3722434528083675
0.3313770933019075
0.2622079967541045
0.16608369170587384
0.06700991695799258
0.31460257701223626
0.3387353818102617
-0.11589028687239962
-0.12959201881078913
-0.10428190494877256
-0.11247840927424477
-0.12334296096120922
0.7186025181975444
0.844404793700676
0.048517925983705634
0.47047192262016185
0.4096467590805044
0.16883323775793108
0.006056744000929605
-0.06969123283858708
-0.09502328603278572
-0.09967138886585075
-0.09802418079503496
-0.09674944866995959
-0.09324568602905128
-0.08002060029345412
-0.03705368070609553
0.3074560458621435
0.09408631719389741
0.055572728735923775
0.21995642784586888
0.4415977451473717
0.5282941419697074
-0.09457102239086712
-0.09033275946718713
-0.09526907379033711
-0.07750698317396766
-0.08992386744975372
-0.06734228025652171
-0.006493681172326811
-0.043668287807804
0.11949051409573837
0.3224076642908433
0.41072509560586096
0.49054646834023774
0.13704356384582278
2.248115407012417
2.526548638395768
0.31805205766011535
0.011895013787091744
-0.32169768037872737
0.4352298572454854
-0.09507350910428301
-0.0927089256258732
-0.0933429917424496
-0.08492729892574698
-0.08071210320393864
-0.06282150584614078
-0.041171590689248486
0.05035400415491226
0.2159731095523459
0.04059265681034753
-0.14245798779973307
-0.11539328472575786
-0.12256747687339077
-0.10489469027992784
0.9668553861853372
0.5752787926644943
-0.02887091288720634
0.23936101710748697
0.14134702498613694
0.4494278614940785
0.2249931582240956
0.06945865682716708
-0.10359170961552869
0.38956766024996475
-0.02470171007996889
-0.42154623631871335
-0.15544617596460136
0.03397642013927254
0.27582218604604003
-0.10074392262455549
-0.1044419160692519
-0.10122566527436828
-0.10907618391700613
-0.1019509668311064
-0.11021555298356533
-0.07901949848919132
-0.07085093774904218
0.8357973833410389
0.6927718002277277
-0.20453058507607633
-0.10135919758680535
-0.14554982908721129
-0.2124012383437821
-0.11799937185003723
0.3228346546225424
0.4007238529906519
0.5427334158849776
0.518164919450263
-0.30397513071901894
0.3776511272404175
0.4683523636130912
-0.09434664818313769
-0.09411402393040649
-0.09290095548162577
-0.09054572948387887
-0.09331667189664614
-0.09011142365702765
-0.07941719942817985
-0.08641219655877162
-0.08335929767805716
-0.07110628041268209
-0.06787584564381104
-0.05034398027625274
-0.01900550161628117
-0.050581732122740176
0.02760310767189479
0.09080006766488506
0.27110104630225235
0.1736310346739712
-0.6208427832562652
-0.5170266468493581
2.3288715243171842
1.977729180540918
-0.011985543126596119
-0.2398753397186012
-0.12105569994139662
0.16753302596149372
-1.0229213181894463
0.268439633262834
0.18364783091179068
0.04385348512990107
0.10554980171418296
0.3490044721865597
-0.003338595212142775
0.393996502297369
0.21964408512610745
0.3666849187171162
0.5335554034275634
0.7117280255311162
0.42445028579031846
0.4976069350552056
0.32408225138415386
0.2214239726215002
0.1309689987127933
0.05805299068100245
0.003332393711935305
-0.03568630171413275
-0.05931369022903382
-0.035562177219346985
-0.07390754858284017
-0.06136114675596779
-0.07759241847092557
-0.08307860029278044
-0.08692469972897703
-0.09182133127384626
-0.08854308160369194
-0.09174601919111722
-0.09385196623427425
-0.09423789062890556
-0.09349397174812299
0.018916490263522
0.14359185031989177
0.3102545072567381
-0.26616204739757693
0.10031665624281862
0.6219205114744742
0.5350413689582719
2.9028531459960156
2.1535502037365903
0.3876451027989623
0.43103024486797537
0.4743942050720873
0.009001202608151047
0.30840557694327886
-0.01962784887956125
-0.2838258623610012
0.5919490454131389
0.5098581656648551
0.07806946404467513
-0.09751608162509809
-0.0990328843121041
-0.09536664993996849
-0.0984717934719444
-0.08803405514172478
-0.08524776438789837
-0.06707694418123461
-0.038055697955930556
0.3113107571359736
0.03840620531203993
1.2523989837612974
1.477956858367691
0.26785112007671946
0.0941368262724527
0.18350394138944326
0.4143492375141573
-0.10131228014621196
-0.10056806388664034
-0.10638753881639187
-0.10091680877250722
-0.10851807493930546
-0.09469057505008174
-0.09632293756876036
-0.026466329421788167
0.14526159261151658
5.59786874358974
5.40239999314092
-0.011961009036295434
2.0966937457167774
0.4890400930577961
-0.09590324635077113
-0.0964440885967067
-0.09473342857027586
0.403072176174552
-0.09328887078909733
-0.09613741364634382
-0.09454876634929123
-0.08962589102910877
-0.08518170269309382
-0.08880996092307768
-0.08091419447779316
-0.07384682888912406
-0.061827919748465056
-0.06012534688370726
-0.037498271896097154
0.014971813290533587
0.4892717094494588
0.06384941746496152
0.16540271448939897
0.24571262430048607
-0.06668417540320233
0.22584478364351462
0.07377465243213246
0.15151401348673646
-0.11084250067536745
-0.16917931579204173
0.155222673515885
0.3816102854349652
0.3763209300834407
-0.09468344161698065
0.03526077591504753
0.4415041115277384
0.5321320398878228
-0.13528194009473565
0.46581101609312925
0.011930680574961203
-0.5110905048477884
0.34160198106348544
1.0195447341592734
0.9265861500049497
0.37547324625734907
-0.020693482387053343
-0.17790973682565464
-0.04867568954751247
-0.16684865493397347
0.11946508441726648
1.24733312049996
0.5716913030917179
-1.2197151042876093

SCALARS Vx_analytic double
LOOKUP_TABLE default
4.098758729483153
-10.329396144942972
-14.272656198875815
0.13157048671877963
4.492180614801773
-2.6855932940040144
-4.474933472215218
3.5414064236305363
1.0315937866203215
20.84272415941432
-8.190477801493751
-0.412008181888878
-0.9026349227424609
-0.24030988838918663
-0.12083794647281007
-0.038164844618246214
-0.1179553774296528
-0.1926706039978724
-0.6619490259539196
-0.6145090912617337
-6.118504942212516
17.94183712520663
3.5134726704405734
-1.015749086009055
0.1483797419510807
0.03435823838325264
-0.31844196541185726
2.1103708330790796
1.091016657704479
0.7136723314561993
0.5845610499335319
0.5326094221972576
0.5072693307486964
0.4787141434006002
0.44241444558000437
0.398664946642616
0.34937780259780987
0.29829545105373323
0.24743823920839306
0.19905968064779217
0.15410294521805057
0.1132267557979382
0.07672190728707755
0.044835885224256106
0.01745219534120558
-0.00591213824873379
-0.02550061079681478
-0.041623923809567746
-0.05461370355691977
-0.0650740575807146
-0.0733053399597777
-0.0796564556564466
-0.08439349243284709
-0.08792114457457294
-0.09043323415061719
-0.09214328366519751
-0.09319541891471503
-0.09378701459949898
-0.09400131390228267
-0.09390759231830466
-0.09353673654614546
-0.0929149835289871
-0.092029848418121
-0.09080329136422724
-0.08916895005840118
-0.08702000636286875
-0.08424756912809589
-0.08061519604373377
-0.07595762263248455
-0.07004648419762079
-0.06267052289006715
-0.05335472679130138
-0.04185396006698773
-0.02796658114225656
-0.011044924698060538
0.009053464713891391
0.03259992324209849
0.05988359972262728
0.09105873507776907
0.12601463539948146
0.16427206868792943
0.20511274965830384
0.2471802554464015
0.288834174621892
0.32745720108640003
0.3600115270698383
0.3817746776820382
0.3874117988875528
0.3726142492310305
0.33178053499808285
0.2625408312616527
0.16632571024722612
0.06696848402258744
0.3068173482270213
0.3365597950387903
-0.11514209426588491
-0.12946608912453017
-0.10428095468249103
-0.11255211981055421
-0.1240638586584936
0.7277631940995102
0.8343627904956817
0.047584237653939515
0.46859445559734425
0.4120202482574142
0.1688205472096427
0.006312698446256396
-0.06950755766220122
-0.09494914494649428
-0.09965008827502106
-0.09802003173922272
-0.0967557352159646
-0.09328712337104667
-0.08015901294144853
-0.03740334788245207
0.30957057748975986
0.10082071971966286
0.05523126507164808
0.22018262617007306
0.443947056906197
0.5272806736084266
-0.09457124458983933
-0.09034602058325525
-0.09526358669522496
-0.07755856439026974
-0.08990336237116268
-0.06728907653978418
-0.006415806367193408
-0.04382559051399342
0.11947342669182383
0.32192580249269015
0.41292712301159795
0.4918475037738042
0.13691534851214843
2.2554859546112453
2.4650098792699757
0.31863998083135536
0.01168357172158594
-0.3228644828801407
0.43447594956775704
-0.09507126376741531
-0.09271313410330898
-0.09333192369933548
-0.08494837137284636
-0.08067631688015128
-0.06288590109317989
-0.04109306887932317
0.05043928270180224
0.21585929920232036
0.0414856718908739
-0.141990920565894
-0.11535382469133369
-0.12292486324400029
-0.10490995854061935
0.8919366286968384
0.5835837105801143
-0.029644021022580336
0.23928885468310684
0.14272935133138795
0.45824065040941175
0.2251109202417102
0.06928883984398895
-0.10359069713629053
0.39051142131766803
-0.024798201795800976
-0.42017259538028223
-0.1555333051223198
0.03427575807489286
0.2751010163399872
-0.10074533106385303
-0.10442613797605793
-0.10125835397292827
-0.1090104470880744
-0.10208346479477266
-0.11000508251082712
-0.07942609426389495
-0.07046529961788504
0.8279276984517568
0.698378557490364
-0.20430534937414666
-0.10136878437574677
-0.14548182656614306
-0.21334831011237806
-0.11804465304140448
0.324146062705083
0.4021005315994373
0.5450461211897499
0.5182223909365947
-0.30311408899608594
0.3773571105213011
0.46795877360003973
-0.09434538915384166
-0.09411342770427787
-0.0929029710528484
-0.09055229331821464
-0.09331408631612742
-0.09010636997483314
-0.07944565930788394
-0.08642853268391067
-0.08335120780878277
-0.07109384732232876
-0.0679335890862256
-0.05042957534633068
-0.018991963424519434
-0.050568629580633316
0.027598015632582813
0.09077091334019402
0.2709293820121605
0.17353698772757772
-0.601844817459515
-0.542593073960043
2.3318667576578846
1.995274823973948
-0.014735411235795828
-0.23695546616288612
-0.12239939716926447
0.1695170433790098
-1.007640800961539
0.26867053930019835
0.18360304074136377
0.04368917071880027
0.10541295322350297
0.34973326474370514
-0.003464878735175681
0.39518037934349454
0.2207487617554695
0.36778165302813953
0.5344809290834897
0.7159458290285468
0.42414885944772374
0.49739065692201867
0.3239208514031602
0.2213746791738095
0.13096843969126135
0.058087061667138125
0.0033630557375181032
-0.03577782722523118
-0.059367469030620394
-0.03553071843712324
-0.07394024451776378
-0.06134137887639677
-0.07757820574583658
-0.08309552253876519
-0.08691723344287419
-0.09181712051397574
-0.08855152675117875
-0.09174924520206226
-0.09385015232948922
-0.09423715613610026
-0.09349441097258605
0.018786330885220755
0.14349219971398802
0.31062286964321684
-0.27211386675395044
0.0999136708463482
0.6182441344553944
0.5389726439756112
2.8024629618816825
1.9865974906447554
0.38915605839918466
0.4274633936026972
0.47849293984580293
0.008601697455377292
0.3091116889256788
-0.01988181957323919
-0.28524492321366146
0.5890233180873238
0.5136601726477755
0.07825833808953357
-0.09751632841110061
-0.09902355143657374
-0.09538612535228799
-0.09843089679655473
-0.08811744498040897
-0.08513208417901665
-0.06728259208081984
-0.037820946004756426
0.3106058187863983
0.03821185970765006
1.265095885158738
1.4596296501595611
0.2682705465996292
0.09394380851806228
0.1835464709351404
0.41557778511190147
-0.10130732975870144
-0.100577512758213
-0.10635150506279974
-0.10097055158648799
-0.1083944901182347
-0.094886181610985
-0.09598504072705423
-0.025985223473759873
0.1452047289065771
5.32063825240497
5.208313375212349
-0.011201955591069252
2.0931188692025233
0.4861349762466186
-0.09590105001749961
-0.09644003203732394
-0.09473729914591353
0.40217463288943756
-0.09329822622959626
-0.09612589292263692
-0.0945294457873815
-0.0896537570921018
-0.08522324094184128
-0.08876935816446886
-0.08085437054335003
-0.0739411942452903
-0.0619527646101913
-0.06002437307197497
-0.0373753744884595
0.015113844562925432
0.4878505379679646
0.0639611827973753
0.16535956834147036
0.2454509179920036
-0.06716636665689509
0.2258767962915837
0.07364341386586948
0.1515115847658133