# vtk DataFile Version 1.0
2D Simulation C++
ASCII
DATASET UNSTRUCTURED_GRID
FIELD FieldData 1
NODES 1 2 int
348 601

POINTS 348 double
0.0 0.5 0.0
0.0 1.0 0.0
2.0 1.0 0.0
2.0 0.5 0.0
0.0 0.528801679611206 0.0
0.0 0.564507782459259 0.0
0.0 0.6110168099403381 0.0
0.0 0.6721802353858948 0.0
0.0 0.7528436183929443 0.0
0.0 0.8593378663063049 0.0
0.16666941344738007 1.0 0.0
0.3333356976509094 1.0 0.0
0.5000020265579224 1.0 0.0
0.6666678786277771 1.0 0.0
0.8333337306976318 1.0 0.0
1.0 1.0 0.0
1.1666662693023682 1.0 0.0
1.3333321809768677 1.0 0.0
1.4999979734420776 1.0 0.0
1.6666642427444458 1.0 0.0
1.8333306312561035 1.0 0.0
2.0 0.8593378663063049 0.0
2.0 0.7528436183929443 0.0
2.0 0.6721802353858948 0.0
2.0 0.6110168099403381 0.0
2.0 0.564507782459259 0.0
2.0 0.528801679611206 0.0
0.029850948601961136 0.5 0.0
0.05970168858766556 0.5 0.0
0.08955242484807968 0.5 0.0
0.1194031685590744 0.5 0.0
0.14925390481948853 0.5 0.0
0.17910465598106384 0.5 0.0
0.20895539224147797 0.5 0.0
0.2388061285018921 0.5 0.0
0.2686568796634674 0.5 0.0
0.29850760102272034 0.5 0.0
0.32835835218429565 0.5 0.0
0.35820910334587097 0.5 0.0
0.3880598247051239 0.5 0.0
0.4179105758666992 0.5 0.0
0.44776129722595215 0.5 0.0
0.47761204838752747 0.5 0.0
0.5074627995491028 0.5 0.0
0.5373135209083557 0.5 0.0
0.5671642422676086 0.5 0.0
0.5970150232315063 0.5 0.0
0.6268657445907593 0.5 0.0
0.6567164659500122 0.5 0.0
0.6865672469139099 0.5 0.0
0.7164179682731628 0.5 0.0
0.7462686896324158 0.5 0.0
0.7761194705963135 0.5 0.0
0.8059701919555664 0.5 0.0
0.8358209133148193 0.5 0.0
0.865671694278717 0.5 0.0
0.89552241563797 0.5 0.0
0.9253731369972229 0.5 0.0
0.9552239179611206 0.5 0.0
0.9850746393203735 0.5 0.0
1.0149253606796265 0.5 0.0
1.0447760820388794 0.5 0.0
1.0746268033981323 0.5 0.0
1.1044776439666748 0.5 0.0
1.1343283653259277 0.5 0.0
1.1641790866851807 0.5 0.0
1.1940298080444336 0.5 0.0
1.2238805294036865 0.5 0.0
1.2537312507629395 0.5 0.0
1.2835819721221924 0.5 0.0
1.3134328126907349 0.5 0.0
1.3432835340499878 0.5 0.0
1.3731342554092407 0.5 0.0
1.4029849767684937 0.5 0.0
1.4328356981277466 0.5 0.0
1.4626864194869995 0.5 0.0
1.492537260055542 0.5 0.0
1.522387981414795 0.5 0.0
1.5522387027740479 0.5 0.0
1.5820894241333008 0.5 0.0
1.6119401454925537 0.5 0.0
1.6417908668518066 0.5 0.0
1.6716417074203491 0.5 0.0
1.701492428779602 0.5 0.0
1.731343150138855 0.5 0.0
1.761193871498108 0.5 0.0
1.7910445928573608 0.5 0.0
1.8208953142166138 0.5 0.0
1.8507460355758667 0.5 0.0
1.8805968761444092 0.5 0.0
1.910447597503662 0.5 0.0
1.940298318862915 0.5 0.0
1.970149040222168 0.5 0.0
1.7358819246292114 0.7499510645866394 0.0
0.2656642198562622 0.7486277222633362 0.0
0.49981194734573364 0.737183690071106 0.0
0.74151611328125 0.7359843254089355 0.0
0.9774143695831299 0.7371892929077148 0.0
1.201690912246704 0.7367381453514099 0.0
1.447761058807373 0.7383390665054321 0.0
1.8591958284378052 0.6421071290969849 0.0
0.14080412685871124 0.6421071290969849 0.0
1.588537573814392 0.6783608794212341 0.0
0.2553686201572418 0.6221352219581604 0.0
1.7466964721679688 0.6278358101844788 0.0
0.38199201226234436 0.6273008584976196 0.0
0.5013589859008789 0.6272794008255005 0.0
0.6207823157310486 0.6272526383399963 0.0
0.7401852607727051 0.627252459526062 0.0
0.8595882654190063 0.6272523999214172 0.0
0.9701492786407471 0.6212864518165588 0.0
1.0807102918624878 0.6272523999214172 0.0
1.2001131772994995 0.6272523999214172 0.0
1.3195161819458008 0.6272523999214172 0.0
1.4488563537597656 0.6310953497886658 0.0
1.9247323274612427 0.5706554055213928 0.0
0.07526770234107971 0.5706554055213928 0.0
1.5377081632614136 0.5910930037498474 0.0
1.6566967964172363 0.5934624075889587 0.0
1.8074009418487549 0.5708622932434082 0.0
0.1940300166606903 0.5737577676773071 0.0
1.0286364555358887 0.5665481686592102 0.0
1.14803946018219 0.5665481686592102 0.0
0.9116620421409607 0.5665481686592102 0.0
1.2674424648284912 0.5665481686592102 0.0
0.7922590970993042 0.5665481686592102 0.0
0.6728560328483582 0.5665482878684998 0.0
0.5534531474113464 0.5665481686592102 0.0
1.3892061710357666 0.5727682709693909 0.0
0.43402159214019775 0.5665869116783142 0.0
0.3146642744541168 0.5667200088500977 0.0
1.8656742572784424 0.5607567429542542 0.0
0.1343258023262024 0.5607567429542542 0.0
1.5970147848129272 0.5642029047012329 0.0
1.8783670663833618 0.7786769866943359 0.0
0.12163297086954117 0.7786769866943359 0.0
1.7164177894592285 0.562579333782196 0.0
1.4776118993759155 0.5620538592338562 0.0
1.5857784748077393 0.867691159248352 0.0
0.25373148918151855 0.5588531494140625 0.0
0.9701492786407471 0.5582930445671082 0.0
1.0895521640777588 0.5582930445671082 0.0
0.8507462739944458 0.5582930445671082 0.0
1.20895516872406 0.5582930445671082 0.0
0.7313433289527893 0.5582930445671082 0.0
1.3283581733703613 0.5582930445671082 0.0
0.6119403839111328 0.5582930445671082 0.0
0.49253740906715393 0.5582930445671082 0.0
0.37313446402549744 0.5582956075668335 0.0
0.36864349246025085 0.7376502752304077 0.0
0.602456271648407 0.7355343103408813 0.0
0.8441241383552551 0.7366551756858826 0.0
1.3355978727340698 0.7366551160812378 0.0
1.0895521640777588 0.7378703355789185 0.0
0.07051979005336761 0.6486480832099915 0.0
1.9294801950454712 0.6486480832099915 0.0
1.5086064338684082 0.6743985414505005 0.0
1.6785967350006104 0.6649783849716187 0.0
1.9543375968933105 0.5452249050140381 0.0
0.04566239193081856 0.5452249050140381 0.0
1.6567095518112183 0.5496091842651367 0.0
1.53738272190094 0.5491842031478882 0.0
0.91306072473526 0.8965699672698975 0.0
1.7782752513885498 0.5446287989616394 0.0
1.4163299798965454 0.5447981357574463 0.0
0.4287482798099518 0.8945969939231873 0.0
1.2610714435577393 0.8950135707855225 0.0
0.4313095211982727 0.6832783222198486 0.0
0.31561949849128723 0.6858259439468384 0.0
1.029850721359253 0.6781684160232544 0.0
0.9082015752792358 0.6848641633987427 0.0
1.1492537260055542 0.6781684160232544 0.0
0.7886138558387756 0.678956151008606 0.0
1.2709345817565918 0.684736430644989 0.0
0.6685023903846741 0.6868807673454285 0.0
1.4007169008255005 0.6702371835708618 0.0
0.5483440160751343 0.6792802214622498 0.0
0.19808045029640198 0.6887137293815613 0.0
1.797759771347046 0.6853783130645752 0.0
0.6811949610710144 0.8757594227790833 0.0
1.0189321041107178 0.8474968671798706 0.0
0.7922950983047485 0.8446238040924072 0.0
1.3765455484390259 0.8590760827064514 0.0
1.1571698188781738 0.8478953838348389 0.0
1.8954496383666992 0.5359624624252319 0.0
1.8360060453414917 0.5359931588172913 0.0
0.10455036163330078 0.5359624624252319 0.0
0.16417928040027618 0.5353734493255615 0.0
0.5530290007591248 0.8422092199325562 0.0
0.2832632064819336 0.5367912650108337 0.0
0.22469767928123474 0.5394234657287598 0.0
0.9405550956726074 0.5357381105422974 0.0
0.9997434020042419 0.5357381105422974 0.0
1.0600273609161377 0.5365630984306335 0.0
1.1191463470458984 0.5357381105422974 0.0
0.8802711367607117 0.5365630984306335 0.0
0.8211521506309509 0.5357381105422974 0.0
1.2385493516921997 0.5357381105422974 0.0
1.179430365562439 0.5365630984306335 0.0
0.7608681321144104 0.5365630984306335 0.0
0.7017492055892944 0.5357381105422974 0.0
1.2988333702087402 0.5365630984306335 0.0
1.357560396194458 0.5390686392784119 0.0
0.5823462605476379 0.5357381105422974 0.0
0.6414651870727539 0.5365630984306335 0.0
0.5220622420310974 0.5365630984306335 0.0
0.4629422128200531 0.535739541053772 0.0
0.3435409665107727 0.5357455015182495 0.0
0.4026572108268738 0.5365669131278992 0.0
0.21006634831428528 0.8590372204780579 0.0
1.7943172454833984 0.8627070188522339 0.0
0.06134982034564018 0.7191494703292847 0.0
1.938650131225586 0.7191494703292847 0.0
1.634666085243225 0.7584379315376282 0.0
0.3355695903301239 0.8387951850891113 0.0
1.537941336631775 0.7633647918701172 0.0
1.9670078754425049 0.574067234992981 0.0
0.032992132008075714 0.574067234992981 0.0
1.6862140893936157 0.5314788222312927 0.0
1.6272135972976685 0.5317342281341553 0.0
1.5077245235443115 0.5309156775474548 0.0
1.5668202638626099 0.5316618084907532 0.0
1.7466963529586792 0.5298213958740234 0.0
1.4473658800125122 0.5297333002090454 0.0
1.804386019706726 0.5275400876998901 0.0
1.9283779859542847 0.5282225012779236 0.0
1.8656879663467407 0.5267112255096436 0.0
0.13432854413986206 0.5271331071853638 0.0
0.07162196189165115 0.5282225012779236 0.0
0.25373148918151855 0.527070939540863 0.0
0.19419340789318085 0.5297109484672546 0.0
0.31349387764930725 0.5272363424301147 0.0
0.37313446402549744 0.5270199179649353 0.0
0.4329495429992676 0.5274069309234619 0.0
0.49253740906715393 0.5270196795463562 0.0
0.5523557066917419 0.5274024605751038 0.0
1.3898069858551025 0.5277745127677917 0.0
1.3283581733703613 0.5270196795463562 0.0
0.6119403839111328 0.5270196795463562 0.0
1.2685397863388062 0.5274024605751038 0.0
0.6717586517333984 0.5274024605751038 0.0
0.7313433289527893 0.5270196795463562 0.0
1.20895516872406 0.5270196795463562 0.0
0.7911616563796997 0.5274024605751038 0.0
0.8507462739944458 0.5270196795463562 0.0
1.1491369009017944 0.5274024605751038 0.0
1.0895521640777588 0.5270196795463562 0.0
0.9105646014213562 0.5274024605751038 0.0
0.9701492786407471 0.5270196795463562 0.0
1.0297338962554932 0.5274024605751038 0.0
1.4776118993759155 0.5259945392608643 0.0
1.597015619277954 0.5255197882652283 0.0
1.7164177894592285 0.525999903678894 0.0
1.6834615468978882 0.8477573990821838 0.0
1.5822722911834717 0.6086509227752686 0.0
0.20459823310375214 0.6270732283592224 0.0
1.8037469387054443 0.6209055185317993 0.0
0.09990309923887253 0.8589919805526733 0.0
1.9000968933105469 0.8589919805526733 0.0
1.75603187084198 0.5789161324501038 0.0
0.10896337777376175 0.5982794761657715 0.0
1.8910366296768188 0.5982794761657715 0.0
1.4950518608093262 0.605266273021698 0.0
1.7049394845962524 0.6007562279701233 0.0
1.4387125968933105 0.5775743722915649 0.0
1.489302158355713 0.851039469242096 0.0
0.15732239186763763 0.5961292386054993 0.0
1.8436260223388672 0.5944437384605408 0.0
0.4399496018886566 0.6259797215461731 0.0
1.022565245628357 0.6257523894309998 0.0
[...]
POINT_DATA 348
SCALARS Psi double
LOOKUP_TABLE default
1.087898474505915
1.0
1.0
1.0766684692566444
1.087788006230871
1.0875451104726919
1.0891468084440823
1.093872805577498
1.1033510760285985
1.1418217491790532
1.0
1.0
1.0
1.0
1.0
1.0
1.0
1.0
1.0
1.0
1.0
1.1342685463948647
1.0942751242409672
1.0844750354831842
1.079881911372409
1.0777145537983468
1.0768590541920287
1.0879812890902028
1.0867118737203627
1.0848223047272976
1.082420799961274
1.0794798105856347
1.0760237479536146
1.0721218737328306
1.0678672938765628
1.0633834607860357
1.0587584764216051
1.054092062072816
1.0494630468909525
1.0449565223378585
1.0406243933955617
1.0364944248356212
1.0325996192880893
1.0289672844690536
1.025610940001572
1.0225183845118457
1.0196944968263197
1.0171381906735348
1.0148448620382085
1.012790584415185
1.0109687791865194
1.0093691715629325
1.0079826246132648
1.006788756264361
1.0057803759758288
1.0049494028548849
1.0042890027962363
1.0037866646418072
1.0034382993190751
1.003241199565994
1.0031934442639974
1.0032914481784263
1.0035346311375255
1.0039285742433677
1.0044762170590062
1.0051807818982679
1.0060462357461983
1.0070859529070182
1.0083062724644174
1.0097144700031617
1.011316260526926
1.013134552845829
1.0151740580343656
1.0174309700493593
1.0199346785756114
1.022676493090148
1.0256555034855535
1.0288722148436173
1.0323240682515782
1.03599038918502
1.0398395377927867
1.0438338440270774
1.0479255363452404
1.0520543032562306
1.0561439082955981
1.0601072579918007
1.0638381740187968
1.0672402127748222
1.0702047587100605
1.0726291927367777
1.0744756476863018
1.0757491274576896
1.0764613444357811
1.046786711109749
1.051885497499528
1.020119954567465
1.0058086488405233
1.0016730890732293
1.003643948714464
1.0139159671409281
1.0733682570847236
1.082112746639531
1.031107448464217
1.0635343109924493
1.0566896057905462
1.0425530035947275
1.0268241535057523
1.015624362388414
1.0084497788026159
1.0043633587493612
1.0028457867716796
1.0030421303403572
1.0054010944039995
1.0102988518924458
1.019045707142145
1.0762815970208397
1.0856765450456367
1.0292513434324897
1.0445295116975024
1.0659083918864372
1.074034191606712
1.003069060013696
1.0045811566254799
1.00381893054098
1.0086117114269153
1.0070315646224712
1.0132384594371568
1.0232041804416891
1.0157540903958477
1.0374860201990432
1.0554784179709213
1.071980830286011
1.0811616401264965
1.037206961607509
1.078243879475635
1.0863580194891436
1.0536728172764975
1.0235734735172646
1.013076869166263
1.0652546100949445
1.0031970524730114
1.003579888193563
1.0051657431279075
1.0063427129972853
1.009847796855545
1.011873277050544
1.017911442659961
1.03009474661212
1.046479489247985
1.0356947694515557
1.0123546184430492
1.0031387426964233
1.0079927420496273
1.0019375177825467
1.0902638557374258
1.0807843178728151
1.0226367967517496
1.0445797931518377
1.0766486529924728
1.08692977423051
1.04549935640282
1.0301804044160838
1.000432477945714
1.0622233994946007
1.0182593122279573
1.0105238643737662
1.001480191094734
1.0321300518410055
1.0494026491767916
1.0022866924228695
1.0028325832447513
1.0035487593324004
1.0056184817133789
1.0068375194662305
1.0105844966847408
1.0140169693415868
1.0195846246205789
1.0716959174673082
1.0635402041394357
1.003369088874758
1.0005515289266012
1.0019091530081181
1.0044737988317907
1.0011770794818944
1.0738826786534985
1.0689326686853937
1.0837058532098627
1.077857778864787
1.0080518454116583
1.0609556648015954
1.0698224662033127
1.003544909552876
1.0031568981133805
1.0033514355710706
1.0041283491621857
1.0045480023594844
1.00618440919277
1.007584955933143
1.0055370177879093
1.0085721333130848
1.0117220718823767
1.0104033157148797
1.013927017822792
1.0208731770420243
1.0158334216377207
1.0270743050415618
1.0342521732263155
1.05150542919388
1.0425620823573967
1.039556706561152
1.0362112339411225
1.0980435920039107
1.0884747659977336
1.0302226293673087
1.0266177484462173
1.0193764487887336
1.0777981806244419
1.0869960836179229
1.049814493464476
1.0417081050560864
1.0271153359102436
1.0339262736258148
1.0581499446394138
1.021127792383695
1.0654241818171086
1.075478572049122
1.0715896555247897
1.0810291667557004
1.0859076136182249
1.0655604214028782
1.0740717861640972
1.0562842958538758
1.0470323712778802
1.038362659914784
1.0306044752124541
1.023898083915259
1.0163204858116222
1.012123536430582
1.0182792587005476
1.0089275203721768
1.013700677872183
1.0100775781267808
1.0065003902887595
1.0073102832350647
1.0053049710572735
1.004773307365661
1.0036843055083038
1.0039874088494383
1.0032948803011417
1.0031996899315192
1.0240373575828996
1.037782711153777
1.054027665597171
1.0247321279254593
1.034023728479502
1.0720977954053745
1.065417477667316
1.0766798885028075
1.0694555700113677
1.0590427058657002
1.0841870038584422
1.0751055971259487
1.0242340643880599
1.0512398238739744
1.0196470454202295
1.009131994055468
1.079060529425817
1.0704032401573664
1.034444006344293
1.002701771723287
1.0033116066653602
1.0039833364085742
1.0061442472404085
1.0075903524984564
1.0117379897082408
1.0131967721968624
1.0208948219763387
1.0530712580073478
1.026904450074403
1.076945612586621
1.0853521982253387
1.049032720072613
1.0329780828114228
1.0415769128202024
1.0531510677116245
1.0023830257252757
1.0026693188057265
1.0039418911336468
1.005021975539446
1.0079147626328089
1.0097441058479246
1.014474178615145
1.0255108295520203
1.0411378679621515
1.1079720339972976
1.0992860060360785
1.0766662395483488
1.0879553704915885
1.0607630654084086
1.0029734870243021
1.0032515757368843
1.0031706622359355
1.0612209313493572
1.0037527086784603
1.004377022242904
1.0056003462581142
1.0053642798870395
1.0069008653554918
1.0083446693184084
1.0107080771129564
1.0101583380856993
1.0127990591731142
1.0154620518406443
1.0192794234283054
1.0265465388355386
1.0680748969585916
1.0320716499156877
1.0420100803880281
1.0488854790191837
1.0174362726640076
1.0457873258268342
1.030481826843186
1.038647165776142
1.0014570165754397
1.0217583110289146
1.0389659103822089
1.0837777927920267
1.074404664261901
1.0002569121773366
1.028206227624292
1.0692428658326427
1.078109347538554
1.0039401956853695
1.087521509319072
1.0771331067684868
1.0872136409914444
1.078325113484064
1.0690638753648465
1.062427843175982
1.0620060165734526
1.0185975169905452
1.0010538007721417
1.016345308195826
1.0065916817527119
1.0761908357874153
1.087210488862864
1.0528187222834884
1.0469710938931724

SCALARS Omega double
LOOKUP_TABLE default
4.100276591395726
-10.327730795436256
-14.268649563397988
0.13217857057058519
4.492515426469314
-2.6837945533085437
-4.473557660634557
3.542292223091462
1.031478153519609
20.842645460337287
-8.188675201154162
-0.40947252232519005
-0.8985275653939524
-0.234213959427614
-0.11369097867135054
-0.03061211119021888
-0.111169009324192
-0.18643504131190325
-0.6569892800265944
-0.6110339256923958
-6.11574538505102
17.943670585109523
3.512463678239492
-1.0379081270118837
0.14534828365034394
0.03351225769528737
-0.3220314024793327
2.1113617298256773
1.0918367791702863
0.7143021740896202
0.5849518485730603
0.5327239424929852
0.507078022978112
0.47819019534534357
0.4415368869510895
0.39741178056709037
0.34773268551741665
0.29624639566452415
0.24497892024275816
0.1961831334919726
0.15080900292460753
0.10952048225670032
0.07261347350639383
0.04033345357912538
0.012569702993086133
-0.011155351329584912
-0.03108181975535644
-0.04752459062711565
-0.06081139786221107
-0.07154132509423843
-0.08001355261642569
-0.08658310712087378
-0.09151389784999565
-0.09520530149861806
-0.09785149337483817
-0.0996730032519963
-0.1008131404369146
-0.10146383312963966
-0.1017095867212026
-0.10162686877438326
-0.10124796093657909
-0.100592909488634
-0.09964829274356775
-0.09834303166584854
-0.0966122801244786
-0.09434272394968612
-0.0914262585374528
-0.08763222668431425
-0.0827984310741338
-0.07668844523080552
-0.06909527064200242
-0.05954731729103524
-0.04780290324996864
-0.03366497388546423
-0.016472751712209244
0.003910499114035043
0.027743081704727515
0.05530912053745496
0.08677693338047171
0.12203690492204496
0.16057613136083923
0.2016896050434795
0.2440135057808225
0.2859350888697405
0.3247869460039609
0.35760137009317805
0.3795471549340668
0.3852480049243957
0.3706556219672245
0.33000239086054695
0.26103410293995527
0.1651091931386022
0.0663507864743701
0.3151066787097525
0.3393627792575498
-0.11646412749212484
-0.13091185667442953
-0.10570544244128738
-0.1136653523741808
-0.12385496956468697
0.7178328075969908
0.8448250621504738
0.04691930011487032
0.46988162820800183
0.40812474717936165
0.16694960755828203
0.0028975471754212985
-0.07395212630508965
-0.10007944145244901
-0.10519634428525597
-0.10385548595556245
-0.10230780758084992
-0.09843631749301555
-0.08460653283898695
-0.04068562454058676
0.3065098106910526
0.09488991775557551
0.05186250842975225
0.21730105434219005
0.4399174100869998
0.5280590909253015
-0.10168073739804258
-0.09715105264443534
-0.10234065547099998
-0.08372762102510982
-0.09659159909592305
-0.07320444395688414
-0.011171932718895092
-0.04893133638164948
0.11627850663337341
0.3207472807165941
0.40938443047306716
0.49085197054208235
0.1335210953494221
2.2490601200616434
2.527400928682837
0.3156010861576769
0.007244176733274076
-0.31878313544488496
0.4342894838820193
-0.10231092622108622
-0.09981692806405647
-0.10036161191588974
-0.09157790155478321
-0.0871125927520293
-0.06873062135341179
-0.04655457285695297
0.046334058929392796
0.21351020278403696
0.0406420504543284
-0.14344316639389576
-0.11680355787947001
-0.12342029435512201
-0.1061934669341758
0.9676272328609592
0.5747828401966457
-0.031028869523734938
0.2379945714030014
0.14049951445145234
0.4503874092275277
0.2219093738206375
0.06523625353621902
-0.09857906644497445
0.3875232242055523
-0.0300694344344113
-0.4188839881074172
-0.15081365778138328
0.03255470394298306
0.2753749214094942
-0.1046161632896966
-0.10807518480278769
-0.10488149130466723
-0.11268902260609188
-0.10497213967851951
-0.11310599821853827
-0.08190653120131623
-0.07324263405404008
0.8361155033640382
0.6923071888276576
-0.20088340153447246
-0.09796264604998266
-0.14249513301139088
-0.20891313998483022
-0.11464430760700027
0.3216035002334221
0.39908267500535544
0.5432661528299602
0.5181516061358633
-0.3016400703848749
0.37625886709556233
0.46768784739583974
-0.10188407620136301
-0.10167070349686332
-0.10038421079556088
-0.09788440007489367
-0.10072930314616288
-0.09731626898273914
-0.08620622829729407
-0.09350530320949056
-0.09023276549149177
-0.07756313163718377
-0.07426981170368135
-0.056273975081854014
-0.024308275533484986
-0.05649859200342652
0.02302009819072325
0.08697762293821618
0.2689062158620154
0.170629223530799
-0.619190929491794
-0.5147470841169204
2.329445225118809
1.97777543265628
-0.011509735355367331
-0.23816940700231654
-0.12062838988453459
0.16690677657346312
-1.0217322041324268
0.26552628033288067
0.180172800457699
0.039206147176570796
0.10148348527303912
0.3466251469721418
-0.008566668969857718
0.3920916325696329
0.21860644186083644
0.36523518411926975
0.5338230402322749
0.7124939981819868
0.4234154728675399
0.49727144014899605
0.3222716188816116
0.21880357136845408
0.1275221873149854
0.053812359521172144
-0.0016606519172541476
-0.04142765044564641
-0.06554031119323335
-0.04122242055253318
-0.08056138243522781
-0.06760899316182387
-0.08431587013587317
-0.09007820841112309
-0.09403104486061686
-0.09919241075173625
-0.09582606824290955
-0.09921886260678588
-0.1013961046772707
-0.10184407580575057
-0.10108332295891291
0.01396225084988231
0.139799439122406
0.30760252635710994
-0.2638912731573882
0.09725913339108619
0.6218180596335223
0.5337798651870769
2.9039953778016367
2.1556482072658727
0.38564602074544074
0.4315959595356728
0.47340738223765383
0.005161758004359878
0.3062370625432026
-0.02441038489752737
-0.281010695914986
0.5921227818732328
0.5085895250222262
0.07552629316156961
-0.10322296887731294
-0.10472893921779619
-0.1008299381918655
-0.10385718316140927
-0.09299651549749367
-0.08998797085806949
-0.07147385155957132
-0.04182883895740828
0.31016150189176195
0.03413599037442364
1.252325461261808
1.4785748227904965
0.26516210034469895
0.0903693403560979
0.18033095470584687
0.41361737900019213
-0.1053719668988951
-0.10433475528592337
-0.11016426596226717
-0.10444550632403121
-0.11200116001573493
-0.0977274694777739
-0.09915262606974432
-0.028490043251694384
0.14423106337711306
5.598342302591957
5.403331021629158
-0.012855761299529289
2.097569030710597
0.4888528703124067
-0.10265928973092028
-0.1031238363448052
-0.1013519460579827
0.40199689968103386
-0.0998380553847869
-0.10270297647368189
-0.1010056688839538
-0.09587048404946809
-0.0912424791447646
-0.09487819303128234
-0.08672286982800712
-0.07944071603574397
-0.06713690872751742
-0.06531830849045103
-0.042286178500930784
0.0109994253569337
0.48867830817110613
0.06039491839182615
0.16287202191327688
0.24370900185569083
-0.06902117037216944
0.22262509022680516
0.0693833280335266
0.1491412761468505
-0.10985028243038455
-0.168299378466872
0.15224910600440772
0.38217091777779616
0.37518986524019904
-0.08900149604138817
0.03241088177723649
0.44000536699578036
0.53218960936963
-0.13409298090490043
0.4668976837178418
0.011219789281139316
-0.5101373601020917
0.3408516063694754
1.0203185730901487
0.9271598518391141
0.3733238666502877
-0.02622250183074809
-0.17256911002194522
-0.05296720420536016
-0.166172954662277
0.11856080318490063
1.2482118262421933
0.5729328676153443
-1.2167721124875275

SCALARS Vx_analytic double
LOOKUP_TABLE default
4.100276591395726
-10.327730795436256
-14.268649563397988
0.13210637964617547
4.492515426469314
-2.6837945533085437
-4.473557660634557
3.542292223091462
1.031478153519609
20.842645460337287
-8.188675201154162
-0.40947252232519005
-0.8985275653939524
-0.234213959427614
-0.11369097867135054
-0.03061211119021888
-0.111169009324192
-0.18643504131190325
-0.6569892800265942
-0.6110339256923958
-6.11574538505102
17.943670585109523
3.5132646958977887
-1.01577052216437
0.14755553987798387
0.03451969899674754
-0.3200761990896315
2.1113617298256773
1.0918367791702863
0.7143021740896202
0.5849518485730603
0.5327239424929852
0.507078022978112
0.47819019534534357
0.4415368869510895
0.39741178056709037
0.34773268551741665
0.29624639566452415
0.24497892024275816
0.1961831334919726
0.15080900292460753
0.10952048225670032
0.07261347350639383
0.04033345357912538
0.012569702993086133
-0.011155351329584912
-0.03108181975535644
-0.04752459062711565
-0.06081139786221107
-0.07154132509423843
-0.08001355261642569
-0.08658310712087378
-0.09151389784999565
-0.09520530149861806
-0.09785149337483817
-0.0996730032519963
-0.1008131404369146
-0.10146383312963966
-0.1017095867212026
-0.10162686877438326
-0.10124782765055215
-0.10059294204194909
-0.09964845504938258
-0.09834350190110215
-0.09661312131879746
-0.09434451871860865
-0.09142861870458781
-0.0876359704376915
-0.08280334278891
-0.0766966137963797
-0.06910496134825547
-0.059561448513911326
-0.047822987540059196
-0.03367246039642042
-0.0164853914523804
0.0038884095097775954
0.02772151838471277
0.055297474114428126
0.08676827989982645
0.12202034388196452
0.16057453055739568
0.20170954643104
0.24406643450332235
0.28600158380066637
0.3248965446907802
0.35771286937452096
0.3797278569292226
0.3856007159068246
0.3710283160671036
0.3304074131023675
0.2613683054363882
0.1653518506058793
0.06630766750221427
0.3072890282179728
0.33717061452091723
-0.11573714656013864
-0.13079943948013173
-0.10570535512391697
-0.113727802299489
-0.12456353024137955
0.7269997387825827
0.834761725427109
0.04600727050653779
0.46799101154746897
0.4105073469606138
0.16692146289099727
0.003136668823902171
-0.07378379845270863
-0.10001567391903449
-0.10518127231499252
-0.1038529648682228
-0.10231052803076839
-0.09846832164148975
-0.08473012843988754
-0.041016717923838035
0.30863173663675086
0.10164156815105847
0.05153787112986147
0.2175443433717906
0.44228040793503404
0.5270414712543922
-0.10168036655234687
-0.0971593232266021
-0.10233728464411732
-0.08377000668667708
-0.09657556248298445
-0.07315791420022118
-0.011102327663139414
-0.04907507932942591
0.11625277765604747
0.3202582298912205
0.41159595865397824
0.4921555331208252
0.13340677181581845
2.2562437466215783
2.465884214837693
0.3162010447825555
0.007045941752138463
-0.31995283261097673
0.4335301034134785
-0.10230954769970305
-0.09981884026472192
-0.10035371804727587
-0.09159326976904571
-0.08708221543359834
-0.06878611534530713
-0.04648330343857999
0.04641118694695796
0.2133888545922028
0.04151052174496763
-0.14299730792784265
-0.11677288635863974
-0.1237611951098578
-0.10620445994409021
0.8926160215205257
0.5831067609988894
-0.03178275469461322
0.2379372067213976
0.14188665745972842
0.4592261061065521
0.22203848098082235
0.06507796699727775
-0.09857956794859551
0.38847507772025613
-0.030156942438432203
-0.41751390884504186
-0.1508969166740959
0.032833074894910476
0.2746372744133476
-0.10461649295415074
-0.10806434632249265
-0.10490610193156891
-0.11263371909575579
-0.10508948353650176
-0.1129117505228747
-0.0822930062166048
-0.07287632478518925
0.8282370826628997
0.6979119990900601
-0.20066822435964257
-0.09797116703089767
-0.14243482955312958
-0.20985491953468693
-0.11468425977837801
0.3229199860492188
0.40046616035991645
0.5455847679291018
0.5182087427677359
-0.3007930965710714
0.375962333650931
0.46729198944467193
-0.10188333045339203
-0.1016702073110317
-0.10038502890796555
-0.09788823854675711
-0.10072764797374138
-0.09731253721591396
-0.08622901541256704
-0.09351735548255279
-0.09022641066298893
-0.0775527557513937
-0.07432039420404497
-0.05635099744410014
-0.02429735123512159
-0.05648791947704504
0.02301212412060212
0.08694559797827546
0.26873183033779535
0.17053225418634402
-0.600205555525681
-0.5404004018209254
2.332489161030554
1.9952133237033571
-0.014257358255225493
-0.2352658413396117
-0.12196078555212725
0.168895809096269
-1.0064285288165817
0.2657657157797621
0.18013718698293998
0.03905086594865147
0.10135564260066543
0.34736219757451225
-0.008684319444194616
0.39328239635325696
0.21971500681184053
0.36633678585643453
0.5347506766808807
0.7167242441775262
0.4231117937816346
0.4970539901841666
0.3221079645654243
0.2187517832969863
0.1275192138171465
0.05384393201624264
-0.0016322894206661114
-0.04151191155064797
-0.06558852477115358
-0.04119317859995813
-0.08058918605330971
-0.06759113277235007
-0.08430334731522052
-0.09009150162918646
-0.09402489191073254
-0.0991892092325489
-0.09583184572165117
-0.09922064608285093
-0.10139490965510461
-0.10184361020515206
-0.10108341549804756
0.01383935692007109
0.13970756573244186
0.30797848305191305
-0.26982869697736545
0.09687450540464983
0.6181302600909372
0.5377275131525011
2.803641245253278
1.988321001378339
0.3871698791886648
0.42802012396645
0.47752159428389507
0.0047806028701603935
0.3069585322808055
-0.024649601427369473
-0.2824246628745216
0.589189300531492
0.5124021151991562
0.07569952319075701
-0.10322246035633924
-0.10472312727565843
-0.10084273201007511
-0.10382419512380729
-0.09306743180288611
-0.08988417115473098
-0.071662143132214
-0.04160908275382771
0.3094423826452475
0.03395512403854198
1.2650001535191535
1.4602339633011796
0.2655939521565071
0.09019050064835402
0.18038623593961137
0.4148559104648726
-0.10536896235447814
-0.10433930005250126
-0.11013665881849438
-0.10448760294828124
-0.11189194719586774
-0.09790551172982807
-0.0988342332162914
-0.028031205036262042
0.14415472576216873
5.320999423523941
5.209113620693792
-0.012093327463468815
2.0940044611018496
0.48593036170383036
-0.10265782145731288
-0.103121434532625
-0.10135356154035795
0.4010911438352783
-0.09984342184098383
-0.10269515363957928
-0.10099102635381302
-0.09589104254706406
-0.0912752761062525
-0.09484443757977556
-0.08667060521092529
-0.07952305266772848
-0.06724861035058648
-0.06522696170436242
-0.04217311602229219
0.011130154359653591
0.4872496262961649
0.06049584216775373
0.16281780513829397
0.24343739591993868
-0.06948058667620538
0.2226634354175815
0.0692583377022562
0.14915758458659628
-0.10984270224659685