# vtk DataFile Version 1.0
2D Simulation C++
ASCII
DATASET UNSTRUCTURED_GRID
FIELD FieldData 1
NODES 1 2 int
348 601

POINTS 348 double
0.0 0.5 0.0
0.0 1.0 0.0
2.0 1.0 0.0
2.0 0.5 0.0
0.0 0.528801679611206 0.0
0.0 0.564507782459259 0.0
0.0 0.6110168099403381 0.0
0.0 0.6721802353858948 0.0
0.0 0.7528436183929443 0.0
0.0 0.8593378663063049 0.0
0.16666941344738007 1.0 0.0
0.3333356976509094 1.0 0.0
0.5000020265579224 1.0 0.0
0.6666678786277771 1.0 0.0
0.8333337306976318 1.0 0.0
1.0 1.0 0.0
1.1666662693023682 1.0 0.0
1.3333321809768677 1.0 0.0
1.4999979734420776 1.0 0.0
1.6666642427444458 1.0 0.0
1.8333306312561035 1.0 0.0
2.0 0.8593378663063049 0.0
2.0 0.7528436183929443 0.0
2.0 0.6721802353858948 0.0
2.0 0.6110168099403381 0.0
2.0 0.564507782459259 0.0
2.0 0.528801679611206 0.0
0.029850948601961136 0.5 0.0
0.05970168858766556 0.5 0.0
0.08955242484807968 0.5 0.0
0.1194031685590744 0.5 0.0
0.14925390481948853 0.5 0.0
0.17910465598106384 0.5 0.0
0.20895539224147797 0.5 0.0
0.2388061285018921 0.5 0.0
0.2686568796634674 0.5 0.0
0.29850760102272034 0.5 0.0
0.32835835218429565 0.5 0.0
0.35820910334587097 0.5 0.0
0.3880598247051239 0.5 0.0
0.4179105758666992 0.5 0.0
0.44776129722595215 0.5 0.0
0.47761204838752747 0.5 0.0
0.5074627995491028 0.5 0.0
0.5373135209083557 0.5 0.0
0.5671642422676086 0.5 0.0
0.5970150232315063 0.5 0.0
0.6268657445907593 0.5 0.0
0.6567164659500122 0.5 0.0
0.6865672469139099 0.5 0.0
0.7164179682731628 0.5 0.0
0.7462686896324158 0.5 0.0
0.7761194705963135 0.5 0.0
0.8059701919555664 0.5 0.0
0.8358209133148193 0.5 0.0
0.865671694278717 0.5 0.0
0.89552241563797 0.5 0.0
0.9253731369972229 0.5 0.0
0.9552239179611206 0.5 0.0
0.9850746393203735 0.5 0.0
1.0149253606796265 0.5 0.0
1.0447760820388794 0.5 0.0
1.0746268033981323 0.5 0.0
1.1044776439666748 0.5 0.0
1.1343283653259277 0.5 0.0
1.1641790866851807 0.5 0.0
1.1940298080444336 0.5 0.0
1.2238805294036865 0.5 0.0
1.2537312507629395 0.5 0.0
1.2835819721221924 0.5 0.0
1.3134328126907349 0.5 0.0
1.3432835340499878 0.5 0.0
1.3731342554092407 0.5 0.0
1.4029849767684937 0.5 0.0
1.4328356981277466 0.5 0.0
1.4626864194869995 0.5 0.0
1.492537260055542 0.5 0.0
1.522387981414795 0.5 0.0
1.5522387027740479 0.5 0.0
1.5820894241333008 0.5 0.0
1.6119401454925537 0.5 0.0
1.6417908668518066 0.5 0.0
1.6716417074203491 0.5 0.0
1.701492428779602 0.5 0.0
1.731343150138855 0.5 0.0
1.761193871498108 0.5 0.0
1.7910445928573608 0.5 0.0
1.8208953142166138 0.5 0.0
1.8507460355758667 0.5 0.0
1.8805968761444092 0.5 0.0
1.910447597503662 0.5 0.0
1.940298318862915 0.5 0.0
1.970149040222168 0.5 0.0
1.7358819246292114 0.7499510645866394 0.0
0.2656642198562622 0.7486277222633362 0.0
0.49981194734573364 0.737183690071106 0.0
0.74151611328125 0.7359843254089355 0.0
0.9774143695831299 0.7371892929077148 0.0
1.201690912246704 0.7367381453514099 0.0
1.447761058807373 0.7383390665054321 0.0
1.8591958284378052 0.6421071290969849 0.0
0.14080412685871124 0.6421071290969849 0.0
1.588537573814392 0.6783608794212341 0.0
0.2553686201572418 0.6221352219581604 0.0
1.7466964721679688 0.6278358101844788 0.0
0.38199201226234436 0.6273008584976196 0.0
0.5013589859008789 0.6272794008255005 0.0
0.6207823157310486 0.6272526383399963 0.0
0.7401852607727051 0.627252459526062 0.0
0.8595882654190063 0.6272523999214172 0.0
0.9701492786407471 0.6212864518165588 0.0
1.0807102918624878 0.6272523999214172 0.0
1.2001131772994995 0.6272523999214172 0.0
1.3195161819458008 0.6272523999214172 0.0
1.4488563537597656 0.6310953497886658 0.0
1.9247323274612427 0.5706554055213928 0.0
0.07526770234107971 0.5706554055213928 0.0
1.5377081632614136 0.5910930037498474 0.0
1.6566967964172363 0.5934624075889587 0.0
1.8074009418487549 0.5708622932434082 0.0
0.1940300166606903 0.5737577676773071 0.0
1.0286364555358887 0.5665481686592102 0.0
1.14803946018219 0.5665481686592102 0.0
0.9116620421409607 0.5665481686592102 0.0
1.2674424648284912 0.5665481686592102 0.0
0.7922590970993042 0.5665481686592102 0.0
0.6728560328483582 0.5665482878684998 0.0
0.5534531474113464 0.5665481686592102 0.0
1.3892061710357666 0.5727682709693909 0.0
0.43402159214019775 0.5665869116783142 0.0
0.3146642744541168 0.5667200088500977 0.0
1.8656742572784424 0.5607567429542542 0.0
0.1343258023262024 0.5607567429542542 0.0
1.5970147848129272 0.5642029047012329 0.0
1.8783670663833618 0.7786769866943359 0.0
0.12163297086954117 0.7786769866943359 0.0
1.7164177894592285 0.562579333782196 0.0
1.4776118993759155 0.5620538592338562 0.0
1.5857784748077393 0.867691159248352 0.0
0.25373148918151855 0.5588531494140625 0.0
0.9701492786407471 0.5582930445671082 0.0
1.0895521640777588 0.5582930445671082 0.0
0.8507462739944458 0.5582930445671082 0.0
1.20895516872406 0.5582930445671082 0.0
0.7313433289527893 0.5582930445671082 0.0
1.3283581733703613 0.5582930445671082 0.0
0.6119403839111328 0.5582930445671082 0.0
0.49253740906715393 0.5582930445671082 0.0
0.37313446402549744 0.5582956075668335 0.0
0.36864349246025085 0.7376502752304077 0.0
0.602456271648407 0.7355343103408813 0.0
0.8441241383552551 0.7366551756858826 0.0
1.3355978727340698 0.7366551160812378 0.0
1.0895521640777588 0.7378703355789185 0.0
0.07051979005336761 0.6486480832099915 0.0
1.9294801950454712 0.6486480832099915 0.0
1.5086064338684082 0.6743985414505005 0.0
1.6785967350006104 0.6649783849716187 0.0
1.9543375968933105 0.5452249050140381 0.0
0.04566239193081856 0.5452249050140381 0.0
1.6567095518112183 0.5496091842651367 0.0
1.53738272190094 0.5491842031478882 0.0
0.91306072473526 0.8965699672698975 0.0
1.7782752513885498 0.5446287989616394 0.0
1.4163299798965454 0.5447981357574463 0.0
0.4287482798099518 0.8945969939231873 0.0
1.2610714435577393 0.8950135707855225 0.0
0.4313095211982727 0.6832783222198486 0.0
0.31561949849128723 0.6858259439468384 0.0
1.029850721359253 0.6781684160232544 0.0
0.9082015752792358 0.6848641633987427 0.0
1.1492537260055542 0.6781684160232544 0.0
0.7886138558387756 0.678956151008606 0.0
1.2709345817565918 0.684736430644989 0.0
0.6685023903846741 0.6868807673454285 0.0
1.4007169008255005 0.6702371835708618 0.0
0.5483440160751343 0.6792802214622498 0.0
0.19808045029640198 0.6887137293815613 0.0
1.797759771347046 0.6853783130645752 0.0
0.6811949610710144 0.8757594227790833 0.0
1.0189321041107178 0.8474968671798706 0.0
0.7922950983047485 0.8446238040924072 0.0
1.3765455484390259 0.8590760827064514 0.0
1.1571698188781738 0.8478953838348389 0.0
1.8954496383666992 0.5359624624252319 0.0
1.8360060453414917 0.5359931588172913 0.0
0.10455036163330078 0.5359624624252319 0.0
0.16417928040027618 0.5353734493255615 0.0
0.5530290007591248 0.8422092199325562 0.0
0.2832632064819336 0.5367912650108337 0.0
0.22469767928123474 0.5394234657287598 0.0
0.9405550956726074 0.5357381105422974 0.0
0.9997434020042419 0.5357381105422974 0.0
1.0600273609161377 0.5365630984306335 0.0
1.1191463470458984 0.5357381105422974 0.0
0.8802711367607117 0.5365630984306335 0.0
0.8211521506309509 0.5357381105422974 0.0
1.2385493516921997 0.5357381105422974 0.0
1.179430365562439 0.5365630984306335 0.0
0.7608681321144104 0.5365630984306335 0.0
0.7017492055892944 0.5357381105422974 0.0
1.2988333702087402 0.5365630984306335 0.0
1.357560396194458 0.5390686392784119 0.0
0.5823462605476379 0.5357381105422974 0.0
0.6414651870727539 0.5365630984306335 0.0
0.5220622420310974 0.5365630984306335 0.0
0.4629422128200531 0.535739541053772 0.0
0.3435409665107727 0.5357455015182495 0.0
0.4026572108268738 0.5365669131278992 0.0
0.21006634831428528 0.8590372204780579 0.0
1.7943172454833984 0.8627070188522339 0.0
0.06134982034564018 0.7191494703292847 0.0
1.938650131225586 0.7191494703292847 0.0
1.634666085243225 0.7584379315376282 0.0
0.3355695903301239 0.8387951850891113 0.0
1.537941336631775 0.7633647918701172 0.0
1.9670078754425049 0.574067234992981 0.0
0.032992132008075714 0.574067234992981 0.0
1.6862140893936157 0.5314788222312927 0.0
1.6272135972976685 0.5317342281341553 0.0
1.5077245235443115 0.5309156775474548 0.0
1.5668202638626099 0.5316618084907532 0.0
1.7466963529586792 0.5298213958740234 0.0
1.4473658800125122 0.5297333002090454 0.0
1.804386019706726 0.5275400876998901 0.0
1.9283779859542847 0.5282225012779236 0.0
1.8656879663467407 0.5267112255096436 0.0
0.13432854413986206 0.5271331071853638 0.0
0.07162196189165115 0.5282225012779236 0.0
0.25373148918151855 0.527070939540863 0.0
0.19419340789318085 0.5297109484672546 0.0
0.31349387764930725 0.5272363424301147 0.0
0.37313446402549744 0.5270199179649353 0.0
0.4329495429992676 0.5274069309234619 0.0
0.49253740906715393 0.5270196795463562 0.0
0.5523557066917419 0.5274024605751038 0.0
1.3898069858551025 0.5277745127677917 0.0
1.3283581733703613 0.5270196795463562 0.0
0.6119403839111328 0.5270196795463562 0.0
1.2685397863388062 0.5274024605751038 0.0
0.6717586517333984 0.5274024605751038 0.0
0.7313433289527893 0.5270196795463562 0.0
1.20895516872406 0.5270196795463562 0.0
0.7911616563796997 0.5274024605751038 0.0
0.8507462739944458 0.5270196795463562 0.0
1.1491369009017944 0.5274024605751038 0.0
1.0895521640777588 0.5270196795463562 0.0
0.9105646014213562 0.5274024605751038 0.0
0.9701492786407471 0.5270196795463562 0.0
1.0297338962554932 0.5274024605751038 0.0
1.4776118993759155 0.5259945392608643 0.0
1.597015619277954 0.5255197882652283 0.0
1.7164177894592285 0.525999903678894 0.0
1.6834615468978882 0.8477573990821838 0.0
1.5822722911834717 0.6086509227752686 0.0
0.20459823310375214 0.6270732283592224 0.0
1.8037469387054443 0.6209055185317993 0.0
0.09990309923887253 0.8589919805526733 0.0
1.9000968933105469 0.8589919805526733 0.0
1.75603187084198 0.5789161324501038 0.0
0.10896337777376175 0.5982794761657715 0.0
1.8910366296768188 0.5982794761657715 0.0
1.4950518608093262 0.605266273021698 0.0
1.7049394845962524 0.6007562279701233 0.0
1.4387125968933105 0.5775743722915649 0.0
1.489302158355713 0.851039469242096 0.0
0.15732239186763763 0.5961292386054993 0.0
1.8436260223388672 0.5944437384605408 0.0
0.4399496018886566 0.6259797215461731 0.0
1.022565245628357 0.6257523894309998 0.0
[...]
POINT_DATA 348
SCALARS Psi double
LOOKUP_TABLE default
1.0878984745059237
1.0
1.0
1.076668469256643
1.0877880062308798
1.0875451104727
1.08914680844409
1.0938728055775044
1.1033510760286038
1.1418217491790568
1.0
1.0
1.0
1.0
1.0
1.0
1.0
1.0
1.0
1.0
1.0
1.1342685463948645
1.0942751242409667
1.0844750354831834
1.079881911372408
1.0777145537983457
1.0768590541920273
1.0879812890902114
1.0867118737203711
1.0848223047273058
1.0824207999612823
1.0794798105856427
1.0760237479536228
1.0721218737328393
1.0678672938765716
1.0633834607860446
1.0587584764216145
1.054092062072826
1.049463046890963
1.0449565223378694
1.0406243933955728
1.0364944248356327
1.0325996192881017
1.0289672844690667
1.0256109400015854
1.0225183845118595
1.0196944968263337
1.0171381906735493
1.0148448620382229
1.0127905844151999
1.0109687791865345
1.0093691715629478
1.0079826246132804
1.0067887562643767
1.0057803759758446
1.0049494028549006
1.004289002796252
1.0037866646418225
1.0034382993190905
1.0032411995660093
1.0031934442640125
1.0032914481784412
1.0035346311375402
1.0039285742433817
1.00447621705902
1.0051807818982812
1.006046235746211
1.0070859529070302
1.0083062724644287
1.0097144700031724
1.011316260526936
1.0131345528458382
1.0151740580343742
1.0174309700493671
1.0199346785756185
1.0226764930901544
1.025655503485559
1.0288722148436222
1.0323240682515817
1.0359903891850226
1.0398395377927885
1.0438338440270787
1.0479255363452415
1.0520543032562313
1.0561439082955983
1.0601072579918003
1.063838174018796
1.0672402127748213
1.0702047587100594
1.0726291927367764
1.0744756476863004
1.0757491274576882
1.07646134443578
1.0467867111097486
1.0518854974995335
1.0201199545674726
1.0058086488405324
1.0016730890732382
1.003643948714471
1.0139159671409317
1.0733682570847227
1.0821127466395382
1.0311074484642189
1.0635343109924575
1.0566896057905457
1.0425530035947368
1.0268241535057632
1.0156243623884265
1.0084497788026294
1.0043633587493748
1.0028457867716933
1.00304213034037
1.0054010944040104
1.0102988518924543
1.0190457071421506
1.0762815970208388
1.085676545045645
1.0292513434324935
1.0445295116975033
1.0659083918864363
1.07403419160672
1.0030690600137107
1.004581156625493
1.0038189305409948
1.008611711426926
1.007031564622486
1.0132384594371713
1.0232041804417022
1.0157540903958557
1.0374860201990543
1.0554784179709307
1.0719808302860099
1.0811616401265043
1.0372069616075115
1.0782438794756348
1.086358019489148
1.0536728172764975
1.0235734735172706
1.013076869166263
1.0652546100949531
1.0031970524730263
1.0035798881935771
1.0051657431279228
1.006342712997297
1.00984779685556
1.0118732770505536
1.0179114426599747
1.0300947466121322
1.0464794892479956
1.0356947694515624
1.0123546184430576
1.0031387426964327
1.0079927420496326
1.0019375177825551
1.0902638557374325
1.0807843178728145
1.0226367967517531
1.0445797931518381
1.0766486529924715
1.0869297742305184
1.0454993564028212
1.030180404416088
1.0004324779457165
1.0622233994946
1.0182593122279648
1.0105238643737686
1.0014801910947355
1.0321300518410141
1.049402649176799
1.0022866924228808
1.0028325832447624
1.0035487593324104
1.0056184817133906
1.0068375194662385
1.0105844966847517
1.0140169693415926
1.0195846246205889
1.0716959174673146
1.0635402041394353
1.0033690888747613
1.0005515289266051
1.0019091530081226
1.0044737988317922
1.0011770794818975
1.0738826786534972
1.0689326686853926
1.0837058532098707
1.0778577788647952
1.0080518454116625
1.0609556648016045
1.0698224662033213
1.003544909552891
1.0031568981133956
1.0033514355710853
1.0041283491621995
1.0045480023595
1.0061844091927856
1.0075849559331544
1.005537017787922
1.0085721333131
1.0117220718823916
1.01040331571489
1.0139270178228008
1.0208731770420383
1.0158334216377352
1.027074305041575
1.0342521732263275
1.0515054291938901
1.0425620823574078
1.0395567065611553
1.036211233941122
1.0980435920039164
1.0884747659977332
1.0302226293673091
1.026617748446221
1.019376448788735
1.0777981806244408
1.086996083617931
1.0498144934644766
1.041708105056088
1.0271153359102487
1.033926273625818
1.0581499446394136
1.0211277923837019
1.0654241818171077
1.075478572049121
1.0715896555247884
1.0810291667557084
1.085907613618233
1.0655604214028873
1.0740717861641054
1.0562842958538854
1.0470323712778908
1.038362659914795
1.030604475212467
1.0238980839152723
1.0163204858116304
1.0121235364305916
1.0182792587005618
1.0089275203721877
1.0137006778721978
1.0100775781267959
1.0065003902887717
1.0073102832350802
1.0053049710572892
1.0047733073656746
1.0036843055083182
1.0039874088494538
1.0032948803011565
1.003199689931534
1.0240373575829058
1.0377827111537792
1.054027665597171
1.024732127925459
1.0340237284795044
1.0720977954053823
1.0654174776673153
1.0766798885028106
1.0694555700113675
1.0590427058656997
1.0841870038584498
1.0751055971259478
1.0242340643880645
1.0512398238739744
1.019647045420236
1.0091319940554686
1.0790605294258246
1.0704032401573655
1.034444006344303
1.0027017717233002
1.0033116066653736
1.003983336408586
1.0061442472404223
1.0075903524984662
1.0117379897082541
1.01319677219687
1.0208948219763505
1.0530712580073565
1.0269044500744076
1.0769456125866206
1.0853521982253447
1.0490327200726135
1.032978082811426
1.041576912820204
1.0531510677116243
1.0023830257252873
1.0026693188057374
1.0039418911336584
1.0050219755394552
1.0079147626328204
1.0097441058479317
1.0144741786151554
1.0255108295520297
1.0411378679621595
1.107972033997302
1.0992860060360785
1.0766662395483475
1.0879553704915972
1.060763065408416
1.0029734870243165
1.0032515757368985
1.0031706622359495
1.0612209313493657
1.0037527086784739
1.0043770222429182
1.0056003462581289
1.0053642798870515
1.006900865355503
1.008344669318423
1.010708077112971
1.010158338085709
1.0127990591731229
1.015462051840658
1.0192794234283185
1.026546538835551
1.0680748969586
1.0320716499156992
1.0420100803880386
1.0488854790191935
1.017436272664012
1.045787325826835
1.0304818268431901
1.0386471657761434
1.0014570165754464
1.02175831102892
1.0389659103822106
1.0837777927920347
1.0744046642618998
1.000256912177338
1.0282062276242954
1.0692428658326418
1.078109347538562
1.0039401956853737
1.087521509319081
1.0771331067684855
1.0872136409914521
1.0783251134840628
1.0690638753648514
1.0624278431759815
1.0620060165734522
1.0185975169905526
1.0010538007721435
1.016345308195833
1.0065916817527187
1.0761908357874141
1.0872104888628726
1.0528187222834904
1.0469710938931722

SCALARS Omega double
LOOKUP_TABLE default
4.100276591395195
-10.327730795435963
-14.268649563397874
0.1321785705712982
4.492515426469854
-2.683794553308073
-4.473557660634777
3.542292223091482
1.0314781535197122
20.842645460337287
-8.188675201154027
-0.40947252232514714
-0.8985275653940298
-0.23421395942776746
-0.11369097867158927
-0.03061211119043125
-0.11116900932439515
-0.18643504131207742
-0.6569892800266962
-0.6110339256924165
-6.115745385051008
17.94367058510937
3.512463678239423
-1.0379081270119928
0.14534828365027044
0.03351225769605265
-0.32203140248070194
2.111361729825654
1.0918367791703016
0.7143021740896116
0.5849518485730385
0.5327239424929618
0.5070780229780947
0.47819019534533685
0.4415368869510961
0.39741178056711235
0.3477326855174552
0.29624639566458016
0.24497892024283202
0.1961831334920648
0.15080900292471824
0.10952048225682957
0.07261347350654147
0.040333453579291245
0.012569702993269847
-0.011155351329383941
-0.03108181975513899
-0.0475245906268824
-0.06081139786196291
-0.07154132509397654
-0.08001355261615134
-0.08658310712058812
-0.09151389784969996
-0.09520530149831397
-0.09785149337452737
-0.09967300325168024
-0.10081314043659481
-0.101463833129318
-0.10170958672088083
-0.10162686877406292
-0.10124796093626166
-0.10059290948832114
-0.0996482927432611
-0.09834303166554952
-0.09661228012418839
-0.09434272394940608
-0.09142625853718422
-0.08763222668405808
-0.08279843107389073
-0.07668844523057641
-0.06909527064178798
-0.059547317290835754
-0.04780290324978419
-0.03366497388529537
-0.016472751712055603
0.003910499114173675
0.027743081704851347
0.05530912053756443
0.08677693338056734
0.12203690492212747
0.16057613136090926
0.20168960504353772
0.24401350578086972
0.28593508886977737
0.3247869460039879
0.35760137009319554
0.37954715493407465
0.3852480049243932
0.3706556219672095
0.33000239086051514
0.2610341029398984
0.16510919313850436
0.06635078647429755
0.31510667870970777
0.33936277925753316
-0.11646412749209481
-0.13091185667436053
-0.10570544244121176
-0.1136653523741308
-0.12385496956468738
0.7178328075969673
0.8448250621504451
0.04691930011488732
0.46988162820800616
0.4081247471793636
0.16694960755834268
0.002897547175539326
-0.07395212630491838
-0.10007944145223638
-0.10519634428501881
-0.10385548595531494
-0.10230780758062268
-0.09843631749282061
-0.08460653283883661
-0.04068562454049213
0.30650981069103267
0.0948899177555788
0.05186250842983404
0.21730105434222755
0.43991741008699925
0.5280590909252871
-0.10168073739774978
-0.09715105264417098
-0.10234065547070181
-0.08372762102489194
-0.09659159909564394
-0.07320444395664684
-0.011171932718716518
-0.04893133638149172
0.11627850663348406
0.32074728071663644
0.40938443047305034
0.49085197054205804
0.13352109534948964
2.249060120061576
2.5274009286828245
0.315601086157703
0.0072441767333941125
-0.3187831354449831
0.4342894838820308
-0.10231092622078368
-0.09981692806377146
-0.10036161191559415
-0.09157790155453713
-0.08711259275176539
-0.06873062135321872
-0.04655457285674094
0.046334058929539595
0.21351020278411367
0.040642050454331884
-0.14344316639384627
-0.11680355787939431
-0.12342029435509981
-0.10619346693411122
0.9676272328609296
0.5747828401966097
-0.03102886952369338
0.2379945714030047
0.14049951445138018
0.45038740922761733
0.2219093738206857
0.0652362535363153
-0.0985790664451403
0.3875232242055624
-0.030069434434256286
-0.4188839881074689
-0.15081365778153574
0.032554703943035196
0.27537492140950526
-0.10461616328952916
-0.10807518480262455
-0.10488149130452064
-0.11268902260593228
-0.10497213967841412
-0.11310599821841408
-0.08190653120123657
-0.07324263405394409
0.8361155033640184
0.6923071888276315
-0.20088340153458267
-0.09796264605009104
-0.1424951330114869
-0.20891313998495195
-0.11464430760711015
0.32160350023338574
0.39908267500534744
0.5432661528299438
0.5181516061358419
-0.3016400703849406
0.3762588670955911
0.4676878473958389
-0.10188407620104731
-0.10167070349655047
-0.1003842107952574
-0.09788440007460474
-0.10072930314585121
-0.09731626898243735
-0.08620622829704955
-0.09350530320922217
-0.09023276549120691
-0.07756313163692063
-0.0742698117034648
-0.05627397508166722
-0.024308275533279765
-0.05649859200319084
0.023020098190894085
0.08697762293835175
0.2689062158620786
0.17062922353089774
-0.6191909294917993
-0.5147470841169973
2.329445225118807
1.9777754326562156
-0.011509735355407228
-0.23816940700234646
-0.120628389884569
0.16690677657355865
-1.0217322041323207
0.26552628033292114
0.18017280045776102
0.03920614717668477
0.101483485273126
0.34662514697216285
-0.008566668969713934
0.3920916325696359
0.21860644186076614
0.36523518411924855
0.5338230402322514
0.7124939981820014
0.42341547286755343
0.4972714401489834
0.32227161888165784
0.21880357136853562
0.12752218731510362
0.05381235952132662
-0.001660651917064324
-0.04142765044547339
-0.06554031119302964
-0.041222420552310825
-0.08056138243499504
-0.06760899316157203
-0.08431587013559677
-0.09007820841086439
-0.09403104486032068
-0.09919241075142679
-0.09582606824262817
-0.09921886260648703
-0.10139610467695397
-0.10184407580543363
-0.10108332295860173
0.013962250850011404
0.13979943912248072
0.30760252635714075
-0.263891273157467
0.09725913339114328
0.6218180596335079
0.5337798651870685
2.9039953778016594
2.155648207265792
0.38564602074545257
0.43159595953564656
0.4734073822376354
0.005161758004452555
0.3062370625432233
-0.024410384897395505
-0.28101069591508354
0.592122781873208
0.5085895250222142
0.07552629316165907
-0.10322296887707386
-0.10472893921755215
-0.10082993819165054
-0.10385718316117994
-0.09299651549731865
-0.08998797085787431
-0.07147385155943682
-0.04182883895726166
0.31016150189179087
0.03413599037452607
1.2523254612617645
1.4785748227904718
0.2651621003447343
0.09036934035617702
0.18033095470590066
0.4136173790001761
-0.10537196689871674
-0.10433475528576543
-0.11016426596209893
-0.10444550632389826
-0.1120011600155838
-0.09772746947767799
-0.09915262606962687
-0.02849004325161654
0.14423106337714692
5.59834230259197
5.40333102162907
-0.012855761299866562
2.0975690307107437
0.4888528703124034
-0.10265928973063798
-0.10312383634452331
-0.10135194605771303
0.40199689968105334
-0.0998380553845264
-0.1027029764734036
-0.10100566888368104
-0.09587048404923185
-0.09124247914454438
-0.09487819303102923
-0.0867228698277681
-0.07944071603555608
-0.06713690872734923
-0.06531830849024321
-0.04228617850074351
0.010999425357082163
0.48867830817110586
0.060394918391950346
0.1628720219133598
0.24370900185575023
-0.06902117037211473
0.22262509022685675
0.06938332803362768
0.14914127614688433
-0.1098502824304013
-0.16829937846688817
0.1522491060044581
0.38217091777777884
0.37518986524017645
-0.08900149604156858
0.032410881777293225
0.4400053669957717
0.532189609369608
-0.1340929809049403
0.46689768371810036
0.011219789281028559
-0.5101373601021081
0.3408516063694741
1.0203185730901279
0.9271598518390631
0.3733238666503001
-0.02622250183058835
-0.17256911002211353
-0.05296720420523746
-0.16617295466228468
0.1185608031847668
1.2482118262422395
0.5729328676154593
-1.2167721124875708

SCALARS Vx_analytic double
LOOKUP_TABLE default
4.100276591395195
-10.327730795435963
-14.268649563397874
0.13210637964688762
4.492515426469854
-2.683794553308073
-4.473557660634777
3.542292223091482
1.0314781535197122
20.842645460337287
-8.188675201154027
-0.40947252232514714
-0.8985275653940298
-0.23421395942776746
-0.11369097867158927
-0.03061211119043125
-0.11116900932439515
-0.18643504131207742
-0.656989280026696
-0.6110339256924165
-6.115745385051008
17.94367058510937
3.5132646958977194
-1.0157705221644784
0.14755553987791217
0.03451969899750317
-0.32007619909099405
2.111361729825654
1.0918367791703016
0.7143021740896116
0.5849518485730385
0.5327239424929618
0.5070780229780947
0.47819019534533685
0.4415368869510961
0.39741178056711235
0.3477326855174552
0.29624639566458016
0.24497892024283202
0.1961831334920648
0.15080900292471824
0.10952048225682957
0.07261347350654147
0.040333453579291245
0.012569702993269847
-0.011155351329383941
-0.03108181975513899
-0.0475245906268824
-0.06081139786196291
-0.07154132509397654
-0.08001355261615134
-0.08658310712058812
-0.09151389784969996
-0.09520530149831397
-0.09785149337452737
-0.09967300325168024
-0.10081314043659481
-0.101463833129318
-0.10170958672088083
-0.10162686877406292
-0.10124782765023453
-0.1005929420416362
-0.09964845504907596
-0.09834350190080315
-0.09661312131850719
-0.0943445187183285
-0.0914286187043193
-0.0876359704374354
-0.08280334278866712
-0.07669661379615035
-0.06910496134804092
-0.05956144851371192
-0.04782298753987512
-0.03367246039625164
-0.01648539145222686
0.0038884095099161377
0.02772151838483626
0.0552974741145378
0.08676827989992172
0.1220203438820468
0.16057453055746515
0.20170954643109815
0.24406643450337345
0.2860015838007022
0.3248965446908086
0.3577128693745405
0.37972785692922995
0.38560071590682476
0.3710283160670893
0.33040741310233585
0.26136830543633144
0.1653518506057812
0.0663076675021407
0.3072890282179276
0.3371706145209005
-0.11573714656010776
-0.1307994394800622
-0.10570535512384134
-0.11372780229943975
-0.1245635302413804
0.726999738782559
0.8347617254270816
0.04600727050655411
0.4679910115474736
0.4105073469606151
0.1669214628910582
0.0031366688240205944
-0.07378379845253677
-0.10001567391882145
-0.10518127231475508
-0.10385296486797523
-0.10231052803054126
-0.09846832164129535
-0.0847301284397377
-0.04101671792374384
0.30863173663673105
0.10164156815106176
0.05153787112994269
0.21754434337182765
0.44228040793503093
0.5270414712543778
-0.1016803665520539
-0.0971593232263379
-0.10233728464381905
-0.08377000668645944
-0.09657556248270519
-0.07315791419998359
-0.011102327662960598
-0.04907507932926841
0.11625277765615841
0.32025822989126296
0.41159595865396126
0.49215553312080085
0.1334067718158855
2.2562437466215095
2.465884214837677
0.3162010447825795
0.007045941752258111
-0.3199528326110743
0.4335301034134899
-0.1023095476994005
-0.09981884026443723
-0.10035371804698015
-0.09159326976879985
-0.08708221543333418
-0.06878611534511406
-0.04648330343836772
0.04641118694710499
0.21338885459227971
0.04151052174497164
-0.14299730792779242
-0.11677288635856367
-0.1237611951098364
-0.10620445994402583
0.8926160215205076
0.5831067609988534
-0.03178275469457203
0.23793720672140023
0.14188665745965667
0.4592261061066476
0.22203848098087017
0.06507796699737381
-0.0985795679487613
0.388475077720269
-0.030156942438277424
-0.41751390884509393
-0.15089691667424868
0.03283307489496342
0.2746372744133589
-0.10461649295398312
-0.10806434632232932
-0.10490610193142236
-0.11263371909559575
-0.10508948353639688
-0.11291175052274981
-0.08229300621652592
-0.07287632478509247
0.8282370826628791
0.6979119990900333
-0.20066822435975237
-0.09797116703100613
-0.14243482955322526
-0.20985491953480787
-0.11468425977848813
0.32291998604918304
0.4004661603599083
0.5455847679290851
0.5182087427677146
-0.30079309657113656
0.3759623336509598
0.46729198944467104
-0.1018833304530763
-0.10167020731071885
-0.10038502890766213
-0.09788823854646833
-0.10072764797342972
-0.09731253721561214
-0.08622901541232272
-0.09351735548228457
-0.090226410662704
-0.07755275575113048
-0.07432039420382869
-0.05635099744391367
-0.024297351234916293
-0.056487919476809215
0.023012124120773136
0.08694559797841113
0.2687318303378587
0.1705322541864429
-0.6002055555256867
-0.5404004018210012
2.3324891610305474
1.9952133237032925
-0.014257358255265688
-0.2352658413396414
-0.12196078555216203
0.16889580909636326
-1.006428528816475
0.2657657157798023
0.18013718698300174
0.03905086594876548
0.10135564260075207
0.34736219757453307
-0.00868431944405113
0.39328239635325973
0.21971500681177078
0.36633678585641327
0.5347506766808572
0.716724244177542
0.423111793781648
0.4970539901841539
0.3221079645654706
0.21875178329706804
0.12751921381726491
0.05384393201639707
-0.001632289420476246
-0.04151191155047522
-0.06558852477095031
-0.04119317859973566
-0.0805891860530771
-0.06759113277209818
-0.08430334731494403
-0.0900915016289279
-0.09402489191043634
-0.09918920923223938
-0.0958318457213701
-0.09922064608255213
-0.10139490965478784
-0.10184361020483512
-0.10108341549773639
0.013839356920199964
0.13970756573251594
0.30797848305194264
-0.26982869697744377
0.0968745054047064
0.6181302600909232
0.5377275131524923
2.8036412452532913
1.9883210013782604
0.387169879188677
0.4280201239664252
0.47752159428387647
0.0047806028702526236
0.3069585322808256
-0.02464960142723793
-0.2824246628746195
0.5891893005314676
0.512402115199144
0.07569952319084698
-0.1032224603561002
-0.10472312727541425
-0.10084273200986016
-0.10382419512357764
-0.09306743180271144
-0.08988417115453529
-0.07166214313208003
-0.04160908275368054
0.3094423826452768
0.03395512403864436
1.2650001535191104
1.4602339633011547
0.26559395215654263
0.09019050064843274
0.1803862359396644
0.41485591046485565
-0.10536896235429954
-0.10433930005234367
-0.11013665881832581
-0.10448760294814859
-0.111891947195716
-0.09790551172973275
-0.09883423321617317
-0.028031205036183424
0.14415472576220298
5.320999423523963
5.209113620693705
-0.012093327463804775
2.094004461102003
0.48593036170382703
-0.10265782145703058
-0.10312143453234303
-0.10135356154008836
0.401091143835298
-0.09984342184072345
-0.10269515363930086
-0.10099102635354007
-0.09589104254682809
-0.09127527610603255
-0.09484443757952218
-0.08667060521068595
-0.07952305266754102
-0.06724861035041875
-0.06522696170415421
-0.04217311602210456
0.011130154359802337
0.4872496262961648
0.06049584216787825
0.16281780513837718
0.2434373959199982
-0.06948058667615123
0.22266343541763292