# vtk DataFile Version 1.0
2D Simulation C++
ASCII
DATASET UNSTRUCTURED_GRID
FIELD FieldData 1
NODES 1 2 int
348 601

POINTS 348 double
0.0 0.5 0.0
0.0 1.0 0.0
2.0 1.0 0.0
2.0 0.5 0.0
0.0 0.528801679611206 0.0
0.0 0.564507782459259 0.0
0.0 0.6110168099403381 0.0
0.0 0.6721802353858948 0.0
0.0 0.7528436183929443 0.0
0.0 0.8593378663063049 0.0
0.16666941344738007 1.0 0.0
0.3333356976509094 1.0 0.0
0.5000020265579224 1.0 0.0
0.6666678786277771 1.0 0.0
0.8333337306976318 1.0 0.0
1.0 1.0 0.0
1.1666662693023682 1.0 0.0
1.3333321809768677 1.0 0.0
1.4999979734420776 1.0 0.0
1.6666642427444458 1.0 0.0
1.8333306312561035 1.0 0.0
2.0 0.8593378663063049 0.0
2.0 0.7528436183929443 0.0
2.0 0.6721802353858948 0.0
2.0 0.6110168099403381 0.0
2.0 0.564507782459259 0.0
2.0 0.528801679611206 0.0
0.029850948601961136 0.5 0.0
0.05970168858766556 0.5 0.0
0.08955242484807968 0.5 0.0
0.1194031685590744 0.5 0.0
0.14925390481948853 0.5 0.0
0.17910465598106384 0.5 0.0
0.20895539224147797 0.5 0.0
0.2388061285018921 0.5 0.0
0.2686568796634674 0.5 0.0
0.29850760102272034 0.5 0.0
0.32835835218429565 0.5 0.0
0.35820910334587097 0.5 0.0
0.3880598247051239 0.5 0.0
0.4179105758666992 0.5 0.0
0.44776129722595215 0.5 0.0
0.47761204838752747 0.5 0.0
0.5074627995491028 0.5 0.0
0.5373135209083557 0.5 0.0
0.5671642422676086 0.5 0.0
0.5970150232315063 0.5 0.0
0.6268657445907593 0.5 0.0
0.6567164659500122 0.5 0.0
0.6865672469139099 0.5 0.0
0.7164179682731628 0.5 0.0
0.7462686896324158 0.5 0.0
0.7761194705963135 0.5 0.0
0.8059701919555664 0.5 0.0
0.8358209133148193 0.5 0.0
0.865671694278717 0.5 0.0
0.89552241563797 0.5 0.0
0.9253731369972229 0.5 0.0
0.9552239179611206 0.5 0.0
0.9850746393203735 0.5 0.0
1.0149253606796265 0.5 0.0
1.0447760820388794 0.5 0.0
1.0746268033981323 0.5 0.0
1.1044776439666748 0.5 0.0
1.1343283653259277 0.5 0.0
1.1641790866851807 0.5 0.0
1.1940298080444336 0.5 0.0
1.2238805294036865 0.5 0.0
1.2537312507629395 0.5 0.0
1.2835819721221924 0.5 0.0
1.3134328126907349 0.5 0.0
1.3432835340499878 0.5 0.0
1.3731342554092407 0.5 0.0
1.4029849767684937 0.5 0.0
1.4328356981277466 0.5 0.0
1.4626864194869995 0.5 0.0
1.492537260055542 0.5 0.0
1.522387981414795 0.5 0.0
1.5522387027740479 0.5 0.0
1.5820894241333008 0.5 0.0
1.6119401454925537 0.5 0.0
1.6417908668518066 0.5 0.0
1.6716417074203491 0.5 0.0
1.701492428779602 0.5 0.0
1.731343150138855 0.5 0.0
1.761193871498108 0.5 0.0
1.7910445928573608 0.5 0.0
1.8208953142166138 0.5 0.0
1.8507460355758667 0.5 0.0
1.8805968761444092 0.5 0.0
1.910447597503662 0.5 0.0
1.940298318862915 0.5 0.0
1.970149040222168 0.5 0.0
1.7358819246292114 0.7499510645866394 0.0
0.2656642198562622 0.7486277222633362 0.0
0.49981194734573364 0.737183690071106 0.0
0.74151611328125 0.7359843254089355 0.0
0.9774143695831299 0.7371892929077148 0.0
1.201690912246704 0.7367381453514099 0.0
1.447761058807373 0.7383390665054321 0.0
1.8591958284378052 0.6421071290969849 0.0
0.14080412685871124 0.6421071290969849 0.0
1.588537573814392 0.6783608794212341 0.0
0.2553686201572418 0.6221352219581604 0.0
1.7466964721679688 0.6278358101844788 0.0
0.38199201226234436 0.6273008584976196 0.0
0.5013589859008789 0.6272794008255005 0.0
0.6207823157310486 0.6272526383399963 0.0
0.7401852607727051 0.627252459526062 0.0
0.8595882654190063 0.6272523999214172 0.0
0.9701492786407471 0.6212864518165588 0.0
1.0807102918624878 0.6272523999214172 0.0
1.2001131772994995 0.6272523999214172 0.0
1.3195161819458008 0.6272523999214172 0.0
1.4488563537597656 0.6310953497886658 0.0
1.9247323274612427 0.5706554055213928 0.0
0.07526770234107971 0.5706554055213928 0.0
1.5377081632614136 0.5910930037498474 0.0
1.6566967964172363 0.5934624075889587 0.0
1.8074009418487549 0.5708622932434082 0.0
0.1940300166606903 0.5737577676773071 0.0
1.0286364555358887 0.5665481686592102 0.0
1.14803946018219 0.5665481686592102 0.0
0.9116620421409607 0.5665481686592102 0.0
1.2674424648284912 0.5665481686592102 0.0
0.7922590970993042 0.5665481686592102 0.0
0.6728560328483582 0.5665482878684998 0.0
0.5534531474113464 0.5665481686592102 0.0
1.3892061710357666 0.5727682709693909 0.0
0.43402159214019775 0.5665869116783142 0.0
0.3146642744541168 0.5667200088500977 0.0
1.8656742572784424 0.5607567429542542 0.0
0.1343258023262024 0.5607567429542542 0.0
1.5970147848129272 0.5642029047012329 0.0
1.8783670663833618 0.7786769866943359 0.0
0.12163297086954117 0.7786769866943359 0.0
1.7164177894592285 0.562579333782196 0.0
1.4776118993759155 0.5620538592338562 0.0
1.5857784748077393 0.867691159248352 0.0
0.25373148918151855 0.5588531494140625 0.0
0.9701492786407471 0.5582930445671082 0.0
1.0895521640777588 0.5582930445671082 0.0
0.8507462739944458 0.5582930445671082 0.0
1.20895516872406 0.5582930445671082 0.0
0.7313433289527893 0.5582930445671082 0.0
1.3283581733703613 0.5582930445671082 0.0
0.6119403839111328 0.5582930445671082 0.0
0.49253740906715393 0.5582930445671082 0.0
0.37313446402549744 0.5582956075668335 0.0
0.36864349246025085 0.7376502752304077 0.0
0.602456271648407 0.7355343103408813 0.0
0.8441241383552551 0.7366551756858826 0.0
1.3355978727340698 0.7366551160812378 0.0
1.0895521640777588 0.7378703355789185 0.0
0.07051979005336761 0.6486480832099915 0.0
1.9294801950454712 0.6486480832099915 0.0
1.5086064338684082 0.6743985414505005 0.0
1.6785967350006104 0.6649783849716187 0.0
1.9543375968933105 0.5452249050140381 0.0
0.04566239193081856 0.5452249050140381 0.0
1.6567095518112183 0.5496091842651367 0.0
1.53738272190094 0.5491842031478882 0.0
0.91306072473526 0.8965699672698975 0.0
1.7782752513885498 0.5446287989616394 0.0
1.4163299798965454 0.5447981357574463 0.0
0.4287482798099518 0.8945969939231873 0.0
1.2610714435577393 0.8950135707855225 0.0
0.4313095211982727 0.6832783222198486 0.0
0.31561949849128723 0.6858259439468384 0.0
1.029850721359253 0.6781684160232544 0.0
0.9082015752792358 0.6848641633987427 0.0
1.1492537260055542 0.6781684160232544 0.0
0.7886138558387756 0.678956151008606 0.0
1.2709345817565918 0.684736430644989 0.0
0.6685023903846741 0.6868807673454285 0.0
1.4007169008255005 0.6702371835708618 0.0
0.5483440160751343 0.6792802214622498 0.0
0.19808045029640198 0.6887137293815613 0.0
1.797759771347046 0.6853783130645752 0.0
0.6811949610710144 0.8757594227790833 0.0
1.0189321041107178 0.8474968671798706 0.0
0.7922950983047485 0.8446238040924072 0.0
1.3765455484390259 0.8590760827064514 0.0
1.1571698188781738 0.8478953838348389 0.0
1.8954496383666992 0.5359624624252319 0.0
1.8360060453414917 0.5359931588172913 0.0
0.10455036163330078 0.5359624624252319 0.0
0.16417928040027618 0.5353734493255615 0.0
0.5530290007591248 0.8422092199325562 0.0
0.2832632064819336 0.5367912650108337 0.0
0.22469767928123474 0.5394234657287598 0.0
0.9405550956726074 0.5357381105422974 0.0
0.9997434020042419 0.5357381105422974 0.0
1.0600273609161377 0.5365630984306335 0.0
1.1191463470458984 0.5357381105422974 0.0
0.8802711367607117 0.5365630984306335 0.0
0.8211521506309509 0.5357381105422974 0.0
1.2385493516921997 0.5357381105422974 0.0
1.179430365562439 0.5365630984306335 0.0
0.7608681321144104 0.5365630984306335 0.0
0.7017492055892944 0.5357381105422974 0.0
1.2988333702087402 0.5365630984306335 0.0
1.357560396194458 0.5390686392784119 0.0
0.5823462605476379 0.5357381105422974 0.0
0.6414651870727539 0.5365630984306335 0.0
0.5220622420310974 0.5365630984306335 0.0
0.4629422128200531 0.535739541053772 0.0
0.3435409665107727 0.5357455015182495 0.0
0.4026572108268738 0.5365669131278992 0.0
0.21006634831428528 0.8590372204780579 0.0
1.7943172454833984 0.8627070188522339 0.0
0.06134982034564018 0.7191494703292847 0.0
1.938650131225586 0.7191494703292847 0.0
1.634666085243225 0.7584379315376282 0.0
0.3355695903301239 0.8387951850891113 0.0
1.537941336631775 0.7633647918701172 0.0
1.9670078754425049 0.574067234992981 0.0
0.032992132008075714 0.574067234992981 0.0
1.6862140893936157 0.5314788222312927 0.0
1.6272135972976685 0.5317342281341553 0.0
1.5077245235443115 0.5309156775474548 0.0
1.5668202638626099 0.5316618084907532 0.0
1.7466963529586792 0.5298213958740234 0.0
1.4473658800125122 0.5297333002090454 0.0
1.804386019706726 0.5275400876998901 0.0
1.9283779859542847 0.5282225012779236 0.0
1.8656879663467407 0.5267112255096436 0.0
0.13432854413986206 0.5271331071853638 0.0
0.07162196189165115 0.5282225012779236 0.0
0.25373148918151855 0.527070939540863 0.0
0.19419340789318085 0.5297109484672546 0.0
0.31349387764930725 0.5272363424301147 0.0
0.37313446402549744 0.5270199179649353 0.0
0.4329495429992676 0.5274069309234619 0.0
0.49253740906715393 0.5270196795463562 0.0
0.5523557066917419 0.5274024605751038 0.0
1.3898069858551025 0.5277745127677917 0.0
1.3283581733703613 0.5270196795463562 0.0
0.6119403839111328 0.5270196795463562 0.0
1.2685397863388062 0.5274024605751038 0.0
0.6717586517333984 0.5274024605751038 0.0
0.7313433289527893 0.5270196795463562 0.0
1.20895516872406 0.5270196795463562 0.0
0.7911616563796997 0.5274024605751038 0.0
0.8507462739944458 0.5270196795463562 0.0
1.1491369009017944 0.5274024605751038 0.0
1.0895521640777588 0.5270196795463562 0.0
0.9105646014213562 0.5274024605751038 0.0
0.9701492786407471 0.5270196795463562 0.0
1.0297338962554932 0.5274024605751038 0.0
1.4776118993759155 0.5259945392608643 0.0
1.597015619277954 0.5255197882652283 0.0
1.7164177894592285 0.525999903678894 0.0
1.6834615468978882 0.8477573990821838 0.0
1.5822722911834717 0.6086509227752686 0.0
0.20459823310375214 0.6270732283592224 0.0
1.8037469387054443 0.6209055185317993 0.0
0.09990309923887253 0.8589919805526733 0.0
1.9000968933105469 0.8589919805526733 0.0
1.75603187084198 0.5789161324501038 0.0
0.10896337777376175 0.5982794761657715 0.0
1.8910366296768188 0.5982794761657715 0.0
1.4950518608093262 0.605266273021698 0.0
1.7049394845962524 0.6007562279701233 0.0
1.4387125968933105 0.5775743722915649 0.0
1.489302158355713 0.851039469242096 0.0
0.15732239186763763 0.5961292386054993 0.0
1.8436260223388672 0.5944437384605408 0.0
0.4399496018886566 0.6259797215461731 0.0
1.022565245628357 0.6257523894309998 0.0
[...]
POINT_DATA 348
SCALARS Psi double
LOOKUP_TABLE default
1.0878984745059177
1.0
1.0
1.076668469256647
1.0877880062308736
1.0875451104726943
1.0891468084440845
1.0938728055774998
1.1033510760286
1.141821749179054
1.0
1.0
1.0
1.0
1.0
1.0
1.0
1.0
1.0
1.0
1.0
1.1342685463948654
1.094275124240968
1.0844750354831854
1.0798819113724107
1.0777145537983492
1.076859054192031
1.0879812890902054
1.0867118737203652
1.0848223047272998
1.0824207999612758
1.0794798105856367
1.0760237479536165
1.0721218737328326
1.067867293876565
1.0633834607860375
1.0587584764216067
1.0540920620728176
1.0494630468909543
1.0449565223378605
1.0406243933955635
1.036494424835623
1.0325996192880913
1.0289672844690556
1.0256109400015734
1.0225183845118468
1.0196944968263206
1.0171381906735355
1.0148448620382087
1.0127905844151854
1.0109687791865196
1.0093691715629327
1.0079826246132653
1.0067887562643614
1.0057803759758293
1.0049494028548855
1.0042890027962375
1.003786664641808
1.0034382993190762
1.0032411995659953
1.003193444263999
1.0032914481784276
1.0035346311375266
1.003928574243369
1.0044762170590078
1.0051807818982696
1.0060462357462
1.00708595290702
1.0083062724644185
1.0097144700031624
1.0113162605269264
1.0131345528458293
1.015174058034366
1.0174309700493593
1.0199346785756112
1.0226764930901475
1.0256555034855523
1.0288722148436162
1.0323240682515764
1.0359903891850182
1.0398395377927852
1.043833844027076
1.0479255363452395
1.0520543032562302
1.0561439082955981
1.0601072579918007
1.063838174018797
1.0672402127748226
1.0702047587100618
1.0726291927367793
1.0744756476863038
1.075749127457692
1.0764613444357838
1.0467867111097489
1.051885497499529
1.020119954567466
1.0058086488405238
1.0016730890732293
1.0036439487144644
1.013915967140928
1.0733682570847243
1.082112746639533
1.0311074484642162
1.063534310992451
1.056689605790546
1.042553003594729
1.0268241535057536
1.0156243623884147
1.0084497788026165
1.004363358749362
1.0028457867716805
1.0030421303403585
1.0054010944040004
1.010298851892446
1.0190457071421446
1.076281597020842
1.085676545045639
1.0292513434324888
1.0445295116975013
1.0659083918864374
1.0740341916067138
1.0030690600136976
1.0045811566254814
1.0038189305409808
1.0086117114269162
1.0070315646224715
1.0132384594371573
1.0232041804416903
1.015754090395848
1.0374860201990452
1.0554784179709231
1.0719808302860123
1.0811616401264983
1.0372069616075077
1.0782438794756357
1.086358019489145
1.0536728172764969
1.0235734735172641
1.0130768691662628
1.0652546100949463
1.0031970524730127
1.0035798881935643
1.0051657431279082
1.0063427129972866
1.0098477968555453
1.0118732770505445
1.0179114426599616
1.0300947466121217
1.0464794892479872
1.0356947694515568
1.0123546184430496
1.0031387426964236
1.0079927420496275
1.0019375177825474
1.0902638557374278
1.0807843178728165
1.0226367967517487
1.0445797931518368
1.0766486529924753
1.0869297742305124
1.045499356402819
1.0301804044160827
1.000432477945714
1.0622233994946004
1.0182593122279573
1.0105238643737662
1.001480191094734
1.0321300518410068
1.049402649176793
1.0022866924228702
1.0028325832447513
1.003548759332401
1.0056184817133793
1.006837519466231
1.0105844966847413
1.0140169693415866
1.0195846246205795
1.0716959174673095
1.063540204139436
1.0033690888747584
1.0005515289266012
1.0019091530081181
1.0044737988317904
1.0011770794818944
1.0738826786535003
1.0689326686853946
1.0837058532098647
1.0778577788647887
1.0080518454116587
1.0609556648015974
1.0698224662033147
1.003544909552877
1.0031568981133818
1.003351435571072
1.004128349162187
1.0045480023594853
1.0061844091927705
1.0075849559331442
1.0055370177879108
1.0085721333130853
1.011722071882377
1.0104033157148804
1.0139270178227924
1.0208731770420254
1.0158334216377214
1.0270743050415636
1.0342521732263175
1.051505429193882
1.0425620823573987
1.0395567065611528
1.0362112339411227
1.0980435920039124
1.0884747659977343
1.030222629367308
1.0266177484462178
1.019376448788733
1.077798180624444
1.0869960836179253
1.0498144934644753
1.0417081050560846
1.0271153359102425
1.0339262736258132
1.0581499446394134
1.0211277923836948
1.0654241818171089
1.0754785720491244
1.071589655524791
1.0810291667557024
1.085907613618227
1.0655604214028804
1.074071786164099
1.0562842958538774
1.0470323712778824
1.0383626599147857
1.0306044752124564
1.02389808391526
1.0163204858116224
1.0121235364305825
1.0182792587005485
1.0089275203721777
1.0137006778721835
1.010077578126781
1.006500390288761
1.007310283235065
1.0053049710572741
1.0047733073656628
1.0036843055083051
1.0039874088494394
1.0032948803011428
1.0031996899315205
1.024037357582899
1.0377827111537752
1.0540276655971703
1.0247321279254593
1.0340237284795009
1.0720977954053765
1.065417477667316
1.0766798885028084
1.0694555700113682
1.0590427058656997
1.0841870038584445
1.07510559712595
1.024234064388059
1.0512398238739735
1.0196470454202293
1.0091319940554675
1.079060529425819
1.070403240157367
1.0344440063442943
1.002701771723288
1.0033116066653607
1.003983336408575
1.006144247240409
1.0075903524984569
1.0117379897082415
1.0131967721968624
1.0208948219763399
1.0530712580073496
1.026904450074402
1.0769456125866215
1.0853521982253402
1.049032720072612
1.0329780828114214
1.041576912820201
1.0531510677116243
1.0023830257252762
1.0026693188057274
1.003941891133647
1.0050219755394465
1.0079147626328093
1.0097441058479246
1.0144741786151454
1.0255108295520212
1.0411378679621526
1.107972033997299
1.0992860060360794
1.0766662395483515
1.0879553704915912
1.0607630654084104
1.0029734870243032
1.0032515757368852
1.0031706622359369
1.061220931349359
1.0037527086784617
1.0043770222429047
1.0056003462581145
1.0053642798870406
1.0069008653554927
1.008344669318409
1.0107080771129573
1.0101583380856998
1.0127990591731144
1.015462051840645
1.0192794234283062
1.0265465388355401
1.0680748969585934
1.0320716499156894
1.0420100803880303
1.0488854790191857
1.0174362726640072
1.0457873258268329
1.0304818268431846
1.038647165776141
1.0014570165754395
1.021758311028915
1.0389659103822075
1.0837777927920287
1.074404664261903
1.0002569121773366
1.0282062276242911
1.0692428658326434
1.0781093475385557
1.0039401956853695
1.0875215093190749
1.0771331067684893
1.0872136409914466
1.078325113484066
1.0690638753648476
1.0624278431759822
1.0620060165734528
1.018597516990545
1.001053800772142
1.016345308195826
1.0065916817527125
1.0761908357874177
1.0872104888628666
1.0528187222834888
1.0469710938931729

SCALARS Omega double
LOOKUP_TABLE default
4.100276591396004
-10.327730795436377
-14.2686495633979
0.13217857057047744
4.49251542646876
-2.683794553308241
-4.473557660634954
3.5422922230915836
1.0314781535197934
20.842645460337344
-8.188675201154215
-0.40947252232518183
-0.8985275653939365
-0.2342139594275813
-0.11369097867140143
-0.03061211119021473
-0.11116900932420287
-0.18643504131188857
-0.6569892800265741
-0.611033925692359
-6.1157453850509516
17.943670585109476
3.5124636782393615
-1.0379081270120358
0.14534828365018243
0.03351225769623942
-0.3220314024792467
2.1113617298256697
1.0918367791702839
0.7143021740896419
0.5849518485730949
0.5327239424930253
0.5070780229781533
0.47819019534538304
0.44153688695112553
0.39741178056712234
0.34773268551744435
0.29624639566454786
0.24497892024277798
0.1961831334919889
0.1508090029246208
0.1095204822567109
0.07261347350640208
0.04033345357913162
0.01256970299309067
-0.01115535132958182
-0.031081819755354567
-0.0475245906271148
-0.06081139786221107
-0.07154132509423915
-0.08001355261642697
-0.0865831071208755
-0.0915138978499977
-0.09520530149862033
-0.09785149337484063
-0.09967300325199888
-0.10081314043691722
-0.10146383312964233
-0.10170958672120524
-0.10162686877438584
-0.10124796093658159
-0.10059290948863636
-0.09964829274356998
-0.09834303166585065
-0.09661228012448056
-0.09434272394968793
-0.09142625853745445
-0.08763222668431579
-0.08279843107413522
-0.07668844523080685
-0.06909527064200369
-0.059547317291036427
-0.047802903249969775
-0.03366497388546533
-0.016472751712210285
0.003910499114034079
0.027743081704726665
0.05530912053745429
0.08677693338047131
0.12203690492204497
0.16057613136083987
0.20168960504348105
0.24401350578082553
0.2859350888697458
0.3247869460039695
0.3576013700931917
0.3795471549340879
0.3852480049244279
0.3706556219672728
0.3300023908606183
0.26103410294005774
0.16510919313873462
0.06635078647448099
0.31510667870974357
0.3393627792575616
-0.11646412749212588
-0.13091185667443514
-0.10570544244129311
-0.11366535237418363
-0.12385496956469035
0.717832807596999
0.8448250621505101
0.046919300114866974
0.4698816282080299
0.40812474717936414
0.16694960755829513
0.0028975471754255355
-0.07395212630509014
-0.10007944145245179
-0.10519634428525956
-0.1038554859555658
-0.1023078075808527
-0.09843631749301761
-0.08460653283898861
-0.04068562454058861
0.306509810691165
0.09488991775558048
0.05186250842975097
0.21730105434219052
0.4399174100870199
0.5280590909253394
-0.10168073739804519
-0.09715105264443734
-0.10234065547100288
-0.0837276210251113
-0.09659159909592552
-0.07320444395688488
-0.011171932718891912
-0.04893133638165081
0.11627850663338431
0.32074728071661807
0.40938443047311734
0.4908519705421174
0.13352109534942186
2.2490601200616145
2.5274009286828703
0.31560108615768206
0.007244176733272926
-0.31878313544489306
0.43428948388205196
-0.102310926221089
-0.09981692806405873
-0.10036161191589249
-0.0915779015547849
-0.08711259275203108
-0.06873062135341312
-0.046554572856951984
0.046334058929399444
0.21351020278405405
0.04064205045433374
-0.14344316639389929
-0.11680355787947652
-0.12342029435512439
-0.10619346693417998
0.9676272328609878
0.5747828401966373
-0.031028869523737714
0.2379945714029988
0.14049951445166373
0.4503874092275122
0.22190937382063913
0.06523625353621826
-0.09857906644499102
0.387523224205568
-0.03006943443441247
-0.41888398810742244
-0.15081365778138425
0.03255470394298876
0.27537492140950937
-0.10461616328970043
-0.1080751848027924
-0.10488149130467003
-0.11268902260609623
-0.10497213967852163
-0.11310599821854132
-0.08190653120131838
-0.07324263405403988
0.8361155033640675
0.6923071888276534
-0.20088340153447815
-0.09796264604999042
-0.14249513301140226
-0.20891313998483324
-0.11464430760700431
0.3216035002335054
0.39908267500539263
0.5432661528299885
0.5181516061359038
-0.3016400703848834
0.37625886709559175
0.4676878473958769
-0.10188407620136573
-0.1016707034968659
-0.1003842107955632
-0.09788440007489572
-0.10072930314616557
-0.0973162689827416
-0.08620622829729556
-0.09350530320949232
-0.09023276549149374
-0.07756313163718488
-0.07426981170368267
-0.056273975081855235
-0.024308275533482665
-0.05649859200342623
0.023020098190728443
0.08697762293822531
0.2689062158620367
0.17062922353081356
-0.6191909294918057
-0.5147470841169327
2.3294452251188877
1.977775432656222
-0.011509735355374251
-0.23816940700232125
-0.1206283898845399
0.16690677657374284
-1.0217322041324326
0.2655262803328844
0.18017280045769987
0.03920614717656996
0.10148348527303878
0.3466251469721523
-0.00856666896985877
0.3920916325696576
0.21860644186096642
0.3652351841193271
0.5338230402323123
0.7124939981819944
0.42341547286757364
0.4972714401490361
0.3222716188816369
0.2188035713684719
0.12752218731499712
0.05381235952117923
-0.001660651917250462
-0.04142765044564756
-0.0655403111932346
-0.04122242055253191
-0.08056138243522921
-0.06760899316182431
-0.08431587013587474
-0.09007820841112471
-0.09403104486061908
-0.09919241075173883
-0.09582606824291147
-0.09921886260678806
-0.1013961046772734
-0.1018440758057532
-0.10108332295891535
0.013962250849881353
0.13979943912240622
0.3076025263571165
-0.2638912731573975
0.09725913339108488
0.621818059633556
0.5337798651870862
2.9039953778016407
2.1556482072658456
0.3856460207454493
0.43159595953569774
0.47340738223769946
0.005161758004358318
0.30623706254320465
-0.024410384897528684
-0.28101069591499067
0.5921227818732695
0.508589525022252
0.07552629316157786
-0.10322296887731608
-0.10472893921779974
-0.10082993819186788
-0.10385718316141256
-0.09299651549749548
-0.08998797085807125
-0.07147385155957296
-0.04182883895740669
0.31016150189178215
0.034135990374422547
1.252325461261791
1.478574822790538
0.2651621003447015
0.09036934035609714
0.18033095470584726
0.41361737900018875
-0.10537196689889931
-0.10433475528592667
-0.11016426596227183
-0.10444550632403356
-0.11200116001573864
-0.0977274694777759
-0.09915262606974598
-0.028490043251691625
0.14423106337712382
5.5983423025920285
5.403331021629103
-0.01285576129936394
2.097569030710479
0.48885287031243
-0.1026592897309232
-0.10312383634480825
-0.10135194605798527
0.4019968996810621
-0.0998380553847892
-0.10270297647368495
-0.10100566888395672
-0.09587048404947
-0.09124247914476633
-0.09487819303128471
-0.08672286982800881
-0.07944071603574546
-0.06713690872751885
-0.06531830849045117
-0.04228617850092944
0.010999425356938276
0.48867830817113966
0.060394918391833634
0.16287202191329042
0.24370900185570932
-0.06902117037217197
0.22262509022680724
0.06938332803352601
0.14914127614684897
-0.10985028243039346
-0.16829937846687412
0.15224910600440716
0.3821709177778207
0.37518986524027237
-0.08900149604139311
0.03241088177723442
0.4400053669958126
0.5321896093696683
-0.13409298090490293
0.46689768371780105
0.011219789281506739
-0.5101373601021265
0.3408516063695542
1.0203185730901707
0.9271598518390998
0.3733238666503045
-0.026222501830749187
-0.17256911002195777
-0.05296720420536179
-0.16617295466228285
0.11856080318505183
1.2482118262421682
0.5729328676153049
-1.216772112487522

SCALARS Vx_analytic double
LOOKUP_TABLE default
4.100276591396004
-10.327730795436377
-14.2686495633979
0.132106379646068
4.49251542646876
-2.683794553308241
-4.473557660634954
3.5422922230915836
1.0314781535197934
20.842645460337344
-8.188675201154215
-0.40947252232518183
-0.8985275653939365
-0.2342139594275813
-0.11369097867140143
-0.03061211119021473
-0.11116900932420287
-0.18643504131188857
-0.6569892800265739
-0.611033925692359
-6.1157453850509516
17.943670585109476
3.5132646958976634
-1.0157705221645295
0.14755553987782433
0.03451969899769022
-0.32007619908954477
2.1113617298256697
1.0918367791702839
0.7143021740896419
0.5849518485730949
0.5327239424930253
0.5070780229781533
0.47819019534538304
0.44153688695112553
0.39741178056712234
0.34773268551744435
0.29624639566454786
0.24497892024277798
0.1961831334919889
0.1508090029246208
0.1095204822567109
0.07261347350640208
0.04033345357913162
0.01256970299309067
-0.01115535132958182
-0.031081819755354567
-0.0475245906271148
-0.06081139786221107
-0.07154132509423915
-0.08001355261642697
-0.0865831071208755
-0.0915138978499977
-0.09520530149862033
-0.09785149337484063
-0.09967300325199888
-0.10081314043691722
-0.10146383312964233
-0.10170958672120524
-0.10162686877438584
-0.10124782765055465
-0.1005929420419514
-0.09964845504938483
-0.09834350190110426
-0.09661312131879933
-0.09434451871861045
-0.09142861870458872
-0.08763597043769304
-0.08280334278891163
-0.07669661379638086
-0.06910496134825654
-0.05956144851391251
-0.04782298754006034
-0.033672460396421626
-0.016485391452381464
0.003888409509776629
0.02772151838471187
0.05529747411442776
0.08676827989982566
0.12202034388196416
0.16057453055739587
0.2017095464310413
0.2440664345033246
0.28600158380067253
0.3248965446907894
0.35771286937453456
0.3797278569292434
0.38560071590685985
0.37102831606715186
0.3304074131024389
0.26136830543649076
0.16535185060601104
0.06630766750232525
0.3072890282179637
0.33717061452092895
-0.11573714656013949
-0.13079943948013734
-0.10570535512392272
-0.11372780229949182
-0.12456353024138292
0.7269997387825912
0.8347617254271456
0.04600727050653439
0.4679910115474973
0.41050734696061614
0.1669214628910102
0.003136668823906301
-0.07378379845270908
-0.10001567391903729
-0.10518127231499609
-0.10385296486822618
-0.10231052803077115
-0.09846832164149177
-0.08473012843988921
-0.04101671792383983
0.3086317366368626
0.10164156815106357
0.05153787112986017
0.21754434337179096
0.4422804079350541
0.5270414712544302
-0.10168036655234948
-0.09715932322660391
-0.10233728464412022
-0.0837700066866786
-0.09657556248298693
-0.07315791420022191
-0.011102327663136234
-0.04907507932942724
0.1162527776560583
0.32025822989124453
0.41159595865402754
0.49215553312086036
0.13340677181581817
2.256243746621549
2.4658842148377262
0.3162010447825606
0.007045941752137334
-0.3199528326109846
0.4335301034135109
-0.10230954769970584
-0.09981884026472419
-0.10035371804727863
-0.0915932697690474
-0.08708221543360009
-0.06878611534530846
-0.04648330343857903
0.04641118694696456
0.21338885459221976
0.041510521744972946
-0.14299730792784618
-0.11677288635864623
-0.12376119510986018
-0.10620445994409439
0.8926160215205515
0.5831067609988809
-0.03178275469461602
0.23793720672139473
0.14188665745994
0.4592261061065396
0.22203848098082396
0.0650779669972768
-0.09857956794861207
0.3884750777202742
-0.03015694243843335
-0.4175139088450471
-0.15089691667409685
0.03283307489491621
0.2746372744133628
-0.10461649295415457
-0.10806434632249737
-0.10490610193157172
-0.11263371909576012
-0.10508948353650387
-0.1129117505228777
-0.08229300621660696
-0.07287632478518896
0.828237082662929
0.6979119990900555
-0.20066822435964826
-0.09797116703090543
-0.14243482955314093
-0.20985491953468988
-0.11468425977838206
0.32291998604930217
0.40046616035995375
0.5455847679291299
0.5182087427677764
-0.3007930965710798
0.3759623336509605
0.467291989444709
-0.10188333045339473
-0.1016702073110343
-0.10038502890796787
-0.09788823854675918
-0.1007276479737441
-0.09731253721591644
-0.08622901541256851
-0.09351735548255456
-0.09022641066299089
-0.0775527557513948
-0.0743203942040467
-0.05635099744410137
-0.024297351235119273
-0.05648791947704473
0.023012124120607335
0.08694559797828455
0.26873183033781683
0.17053225418635864
-0.6002055555256923
-0.5404004018209424
2.3324891610306318
1.9952133237032994
-0.014257358255232458
-0.23526584133961648
-0.1219607855521326
0.1688958090965464
-1.0064285288165882
0.2657657157797657
0.18013718698294084
0.03905086594865064
0.10135564260066511
0.3473621975745194
-0.008684319444195673
0.39328239635328155
0.2197150068119702
0.3663367858564919
0.534750676680918
0.7167242441775359
0.4231117937816681
0.4970539901842067
0.32210796456544977
0.2187517832970042
0.12751921381715842
0.05384393201624962
-0.0016322894206624156
-0.04151191155064899
-0.06558852477115507
-0.04119317859995685
-0.08058918605331132
-0.06759113277235052
-0.08430334731522207
-0.0900915016291881
-0.09402489191073478
-0.09918920923255145
-0.09583184572165308
-0.0992206460828531
-0.10139490965510731
-0.1018436102051547
-0.10108341549805
0.013839356920070194
0.13970756573244167
0.30797848305191955
-0.26982869697737427
0.09687450540464827
0.6181302600909709
0.5377275131525124
2.8036412452532806
1.988321001378361
0.38716987918867324
0.42802012396647465
0.4775215942839403
0.004780602870158816
0.3069585322808075
-0.02464960142737065
-0.2824246628745262
0.5891893005315286
0.5124021151991847
0.07569952319076513
-0.10322246035634235
-0.10472312727566198
-0.10084273201007748
-0.10382419512381057
-0.09306743180288762
-0.08988417115473273
-0.07166214313221562
-0.04160908275382613
0.30944238264526763
0.03395512403854085
1.2650001535191373
1.4602339633012196
0.2655939521565102
0.09019050064835293
0.18038623593961114
0.4148559104648688
-0.1053689623544822
-0.10433930005250457
-0.11013665881849904
-0.10448760294828358
-0.11189194719587144
-0.09790551172983007
-0.09883423321629305
-0.028031205036259266
0.14415472576217944
5.320999423524021
5.2091136206937385
-0.012093327463303244
2.094004461101736
0.48593036170385356
-0.1026578214573158
-0.10312143453262804
-0.10135356154036052
0.4010911438353064
-0.09984342184098613
-0.10269515363958234
-0.10099102635381595
-0.09589104254706597
-0.0912752761062542
-0.09484443757977794
-0.08667060521092694
-0.07952305266772992
-0.06724861035058788
-0.06522696170436255
-0.04217311602229084
0.011130154359658119
0.4872496262961985
0.060495842167761105
0.16281780513830746
0.243437395919957
-0.0694805866762077
0.2226634354175845
0.06925833770225563