# vtk DataFile Version 1.0
2D Simulation C++
ASCII
DATASET UNSTRUCTURED_GRID
FIELD FieldData 1
NODES 1 2 int
348 601

POINTS 348 double
0.0 0.5 0.0
0.0 1.0 0.0
2.0 1.0 0.0
2.0 0.5 0.0
0.0 0.528801679611206 0.0
0.0 0.564507782459259 0.0
0.0 0.6110168099403381 0.0
0.0 0.6721802353858948 0.0
0.0 0.7528436183929443 0.0
0.0 0.8593378663063049 0.0
0.16666941344738007 1.0 0.0
0.3333356976509094 1.0 0.0
0.5000020265579224 1.0 0.0
0.6666678786277771 1.0 0.0
0.8333337306976318 1.0 0.0
1.0 1.0 0.0
1.1666662693023682 1.0 0.0
1.3333321809768677 1.0 0.0
1.4999979734420776 1.0 0.0
1.6666642427444458 1.0 0.0
1.8333306312561035 1.0 0.0
2.0 0.8593378663063049 0.0
2.0 0.7528436183929443 0.0
2.0 0.6721802353858948 0.0
2.0 0.6110168099403381 0.0
2.0 0.564507782459259 0.0
2.0 0.528801679611206 0.0
0.029850948601961136 0.5 0.0
0.05970168858766556 0.5 0.0
0.08955242484807968 0.5 0.0
0.1194031685590744 0.5 0.0
0.14925390481948853 0.5 0.0
0.17910465598106384 0.5 0.0
0.20895539224147797 0.5 0.0
0.2388061285018921 0.5 0.0
0.2686568796634674 0.5 0.0
0.29850760102272034 0.5 0.0
0.32835835218429565 0.5 0.0
0.35820910334587097 0.5 0.0
0.3880598247051239 0.5 0.0
0.4179105758666992 0.5 0.0
0.44776129722595215 0.5 0.0
0.47761204838752747 0.5 0.0
0.5074627995491028 0.5 0.0
0.5373135209083557 0.5 0.0
0.5671642422676086 0.5 0.0
0.5970150232315063 0.5 0.0
0.6268657445907593 0.5 0.0
0.6567164659500122 0.5 0.0
0.6865672469139099 0.5 0.0
0.7164179682731628 0.5 0.0
0.7462686896324158 0.5 0.0
0.7761194705963135 0.5 0.0
0.8059701919555664 0.5 0.0
0.8358209133148193 0.5 0.0
0.865671694278717 0.5 0.0
0.89552241563797 0.5 0.0
0.9253731369972229 0.5 0.0
0.9552239179611206 0.5 0.0
0.9850746393203735 0.5 0.0
1.0149253606796265 0.5 0.0
1.0447760820388794 0.5 0.0
1.0746268033981323 0.5 0.0
1.1044776439666748 0.5 0.0
1.1343283653259277 0.5 0.0
1.1641790866851807 0.5 0.0
1.1940298080444336 0.5 0.0
1.2238805294036865 0.5 0.0
1.2537312507629395 0.5 0.0
1.2835819721221924 0.5 0.0
1.3134328126907349 0.5 0.0
1.3432835340499878 0.5 0.0
1.3731342554092407 0.5 0.0
1.4029849767684937 0.5 0.0
1.4328356981277466 0.5 0.0
1.4626864194869995 0.5 0.0
1.492537260055542 0.5 0.0
1.522387981414795 0.5 0.0
1.5522387027740479 0.5 0.0
1.5820894241333008 0.5 0.0
1.6119401454925537 0.5 0.0
1.6417908668518066 0.5 0.0
1.6716417074203491 0.5 0.0
1.701492428779602 0.5 0.0
1.731343150138855 0.5 0.0
1.761193871498108 0.5 0.0
1.7910445928573608 0.5 0.0
1.8208953142166138 0.5 0.0
1.8507460355758667 0.5 0.0
1.8805968761444092 0.5 0.0
1.910447597503662 0.5 0.0
1.940298318862915 0.5 0.0
1.970149040222168 0.5 0.0
1.7358819246292114 0.7499510645866394 0.0
0.2656642198562622 0.7486277222633362 0.0
0.49981194734573364 0.737183690071106 0.0
0.74151611328125 0.7359843254089355 0.0
0.9774143695831299 0.7371892929077148 0.0
1.201690912246704 0.7367381453514099 0.0
1.447761058807373 0.7383390665054321 0.0
1.8591958284378052 0.6421071290969849 0.0
0.14080412685871124 0.6421071290969849 0.0
1.588537573814392 0.6783608794212341 0.0
0.2553686201572418 0.6221352219581604 0.0
1.7466964721679688 0.6278358101844788 0.0
0.38199201226234436 0.6273008584976196 0.0
0.5013589859008789 0.6272794008255005 0.0
0.6207823157310486 0.6272526383399963 0.0
0.7401852607727051 0.627252459526062 0.0
0.8595882654190063 0.6272523999214172 0.0
0.9701492786407471 0.6212864518165588 0.0
1.0807102918624878 0.6272523999214172 0.0
1.2001131772994995 0.6272523999214172 0.0
1.3195161819458008 0.6272523999214172 0.0
1.4488563537597656 0.6310953497886658 0.0
1.9247323274612427 0.5706554055213928 0.0
0.07526770234107971 0.5706554055213928 0.0
1.5377081632614136 0.5910930037498474 0.0
1.6566967964172363 0.5934624075889587 0.0
1.8074009418487549 0.5708622932434082 0.0
0.1940300166606903 0.5737577676773071 0.0
1.0286364555358887 0.5665481686592102 0.0
1.14803946018219 0.5665481686592102 0.0
0.9116620421409607 0.5665481686592102 0.0
1.2674424648284912 0.5665481686592102 0.0
0.7922590970993042 0.5665481686592102 0.0
0.6728560328483582 0.5665482878684998 0.0
0.5534531474113464 0.5665481686592102 0.0
1.3892061710357666 0.5727682709693909 0.0
0.43402159214019775 0.5665869116783142 0.0
0.3146642744541168 0.5667200088500977 0.0
1.8656742572784424 0.5607567429542542 0.0
0.1343258023262024 0.5607567429542542 0.0
1.5970147848129272 0.5642029047012329 0.0
1.8783670663833618 0.7786769866943359 0.0
0.12163297086954117 0.7786769866943359 0.0
1.7164177894592285 0.562579333782196 0.0
1.4776118993759155 0.5620538592338562 0.0
1.5857784748077393 0.867691159248352 0.0
0.25373148918151855 0.5588531494140625 0.0
0.9701492786407471 0.5582930445671082 0.0
1.0895521640777588 0.5582930445671082 0.0
0.8507462739944458 0.5582930445671082 0.0
1.20895516872406 0.5582930445671082 0.0
0.7313433289527893 0.5582930445671082 0.0
1.3283581733703613 0.5582930445671082 0.0
0.6119403839111328 0.5582930445671082 0.0
0.49253740906715393 0.5582930445671082 0.0
0.37313446402549744 0.5582956075668335 0.0
0.36864349246025085 0.7376502752304077 0.0
0.602456271648407 0.7355343103408813 0.0
0.8441241383552551 0.7366551756858826 0.0
1.3355978727340698 0.7366551160812378 0.0
1.0895521640777588 0.7378703355789185 0.0
0.07051979005336761 0.6486480832099915 0.0
1.9294801950454712 0.6486480832099915 0.0
1.5086064338684082 0.6743985414505005 0.0
1.6785967350006104 0.6649783849716187 0.0
1.9543375968933105 0.5452249050140381 0.0
0.04566239193081856 0.5452249050140381 0.0
1.6567095518112183 0.5496091842651367 0.0
1.53738272190094 0.5491842031478882 0.0
0.91306072473526 0.8965699672698975 0.0
1.7782752513885498 0.5446287989616394 0.0
1.4163299798965454 0.5447981357574463 0.0
0.4287482798099518 0.8945969939231873 0.0
1.2610714435577393 0.8950135707855225 0.0
0.4313095211982727 0.6832783222198486 0.0
0.31561949849128723 0.6858259439468384 0.0
1.029850721359253 0.6781684160232544 0.0
0.9082015752792358 0.6848641633987427 0.0
1.1492537260055542 0.6781684160232544 0.0
0.7886138558387756 0.678956151008606 0.0
1.2709345817565918 0.684736430644989 0.0
0.6685023903846741 0.6868807673454285 0.0
1.4007169008255005 0.6702371835708618 0.0
0.5483440160751343 0.6792802214622498 0.0
0.19808045029640198 0.6887137293815613 0.0
1.797759771347046 0.6853783130645752 0.0
0.6811949610710144 0.8757594227790833 0.0
1.0189321041107178 0.8474968671798706 0.0
0.7922950983047485 0.8446238040924072 0.0
1.3765455484390259 0.8590760827064514 0.0
1.1571698188781738 0.8478953838348389 0.0
1.8954496383666992 0.5359624624252319 0.0
1.8360060453414917 0.5359931588172913 0.0
0.10455036163330078 0.5359624624252319 0.0
0.16417928040027618 0.5353734493255615 0.0
0.5530290007591248 0.8422092199325562 0.0
0.2832632064819336 0.5367912650108337 0.0
0.22469767928123474 0.5394234657287598 0.0
0.9405550956726074 0.5357381105422974 0.0
0.9997434020042419 0.5357381105422974 0.0
1.0600273609161377 0.5365630984306335 0.0
1.1191463470458984 0.5357381105422974 0.0
0.8802711367607117 0.5365630984306335 0.0
0.8211521506309509 0.5357381105422974 0.0
1.2385493516921997 0.5357381105422974 0.0
1.179430365562439 0.5365630984306335 0.0
0.7608681321144104 0.5365630984306335 0.0
0.7017492055892944 0.5357381105422974 0.0
1.2988333702087402 0.5365630984306335 0.0
1.357560396194458 0.5390686392784119 0.0
0.5823462605476379 0.5357381105422974 0.0
0.6414651870727539 0.5365630984306335 0.0
0.5220622420310974 0.5365630984306335 0.0
0.4629422128200531 0.535739541053772 0.0
0.3435409665107727 0.5357455015182495 0.0
0.4026572108268738 0.5365669131278992 0.0
0.21006634831428528 0.8590372204780579 0.0
1.7943172454833984 0.8627070188522339 0.0
0.06134982034564018 0.7191494703292847 0.0
1.938650131225586 0.7191494703292847 0.0
1.634666085243225 0.7584379315376282 0.0
0.3355695903301239 0.8387951850891113 0.0
1.537941336631775 0.7633647918701172 0.0
1.9670078754425049 0.574067234992981 0.0
0.032992132008075714 0.574067234992981 0.0
1.6862140893936157 0.5314788222312927 0.0
1.6272135972976685 0.5317342281341553 0.0
1.5077245235443115 0.5309156775474548 0.0
1.5668202638626099 0.5316618084907532 0.0
1.7466963529586792 0.5298213958740234 0.0
1.4473658800125122 0.5297333002090454 0.0
1.804386019706726 0.5275400876998901 0.0
1.9283779859542847 0.5282225012779236 0.0
1.8656879663467407 0.5267112255096436 0.0
0.13432854413986206 0.5271331071853638 0.0
0.07162196189165115 0.5282225012779236 0.0
0.25373148918151855 0.527070939540863 0.0
0.19419340789318085 0.5297109484672546 0.0
0.31349387764930725 0.5272363424301147 0.0
0.37313446402549744 0.5270199179649353 0.0
0.4329495429992676 0.5274069309234619 0.0
0.49253740906715393 0.5270196795463562 0.0
0.5523557066917419 0.5274024605751038 0.0
1.3898069858551025 0.5277745127677917 0.0
1.3283581733703613 0.5270196795463562 0.0
0.6119403839111328 0.5270196795463562 0.0
1.2685397863388062 0.5274024605751038 0.0
0.6717586517333984 0.5274024605751038 0.0
0.7313433289527893 0.5270196795463562 0.0
1.20895516872406 0.5270196795463562 0.0
0.7911616563796997 0.5274024605751038 0.0
0.8507462739944458 0.5270196795463562 0.0
1.1491369009017944 0.5274024605751038 0.0
1.0895521640777588 0.5270196795463562 0.0
0.9105646014213562 0.5274024605751038 0.0
0.9701492786407471 0.5270196795463562 0.0
1.0297338962554932 0.5274024605751038 0.0
1.4776118993759155 0.5259945392608643 0.0
1.597015619277954 0.5255197882652283 0.0
1.7164177894592285 0.525999903678894 0.0
1.6834615468978882 0.8477573990821838 0.0
1.5822722911834717 0.6086509227752686 0.0
0.20459823310375214 0.6270732283592224 0.0
1.8037469387054443 0.6209055185317993 0.0
0.09990309923887253 0.8589919805526733 0.0
1.9000968933105469 0.8589919805526733 0.0
1.75603187084198 0.5789161324501038 0.0
0.10896337777376175 0.5982794761657715 0.0
1.8910366296768188 0.5982794761657715 0.0
1.4950518608093262 0.605266273021698 0.0
1.7049394845962524 0.6007562279701233 0.0
1.4387125968933105 0.5775743722915649 0.0
1.489302158355713 0.851039469242096 0.0
0.15732239186763763 0.5961292386054993 0.0
1.8436260223388672 0.5944437384605408 0.0
0.4399496018886566 0.6259797215461731 0.0
1.022565245628357 0.6257523894309998 0.0
[...]
POINT_DATA 348
SCALARS Psi double
LOOKUP_TABLE default
1.0878984745242282
1.0
1.0
1.076668469284643
1.0877880062490637
1.0875451104904308
1.089146808460777
1.0938728055919873
1.103351076039145
1.141821749184028
1.0
1.0
1.0
1.0
1.0
1.0
1.0
1.0
1.0
1.0
1.0
1.1342685464012345
1.094275124255585
1.0844750355041757
1.0798819113972697
1.0777145538252924
1.0768590542198362
1.0879812891086544
1.086711873739521
1.0848223047477066
1.0824207999834456
1.0794798106100918
1.0760237479808468
1.0721218737633116
1.0678672939107086
1.0633834608242685
1.0587584764642972
1.0540920621202834
1.0494630469434545
1.0449565223956514
1.040624393458828
1.0364944249044783
1.0325996193625893
1.028967284549245
1.0256109400874232
1.0225183846032468
1.0196944969230963
1.017138190775519
1.0148448621451591
1.0127905845267797
1.0109687793023865
1.009369171682724
1.007982624736576
1.0067887563907076
1.0057803761047004
1.0049494029858106
1.0042890029287173
1.003786664775279
1.0034382994529754
1.003241199699821
1.0031934443972639
1.0032914483105972
1.0035346312680677
1.003928574371824
1.0044762171849582
1.0051807820212633
1.006046235865818
1.007085953022929
1.008306272576346
1.0097144701108147
1.0113162606300576
1.0131345529442912
1.0151740581280713
1.0174309701381195
1.019934678659475
1.022676493169131
1.0256555035596828
1.0288722149129923
1.0323240683163393
1.035990389245354
1.039839537848889
1.0438338440791806
1.0479255363936066
1.0520543033011536
1.0561439083373765
1.0601072580307394
1.0638381740552072
1.06724021280906
1.0702047587424361
1.0726291927676264
1.0744756477159623
1.075749127486458
1.0764613444639857
1.046786711129893
1.05188549751853
1.0201199546108282
1.0058086489074598
1.0016730891482077
1.0036439487804525
1.0139159671848679
1.0733682571106578
1.0821127466590295
1.0311074485066698
1.0635343110236668
1.0566896058244633
1.0425530036429038
1.0268241535730604
1.0156243624746226
1.0084497789043738
1.0043633588610914
1.0028457868878007
1.0030421304515906
1.0054010945054606
1.0102988519794607
1.0190457072103603
1.0762815970486832
1.0856765450645443
1.0292513434940804
1.0445295117434503
1.0659083919198844
1.0740341916340241
1.0030690601410108
1.0045811567449177
1.0038189306685519
1.0086117115322581
1.0070315647423136
1.0132384595420985
1.023204180526813
1.0157540904822953
1.03748602026247
1.0554784180141945
1.07198083031647
1.0811616401489743
1.0372069616633526
1.0782438794884779
1.0863580194990712
1.0536728173180887
1.0235734735909383
1.013076869176093
1.0652546101297964
1.0031970526024125
1.0035798883187377
1.0051657432535095
1.0063427131110685
1.0098477969694484
1.0118732771478833
1.017911442755992
1.030094746686799
1.046479489301176
1.0356947694809424
1.0123546184976064
1.0031387427689993
1.0079927421042125
1.001937517854423
1.090263855753454
1.0807843178961618
1.0226367968038823
1.0445797931875336
1.0766486530203996
1.0869297742489517
1.0454993564517838
1.0301804044815033
1.0004324779626597
1.0622233995312726
1.0182593123127517
1.0105238643820318
1.00148019110826
1.0321300518876766
1.0494026492084128
1.00228669251989
1.0028325833397833
1.0035487594230974
1.0056184818041454
1.006837519543721
1.0105844967615853
1.0140169694078822
1.019584624684145
1.071695917487586
1.0635402041643212
1.0033690888936542
1.0005515289575102
1.0019091530378303
1.0044737988488368
1.0011770795099488
1.073882678683332
1.0689326687182152
1.08370585323083
1.0778577788902612
1.0080518454322236
1.0609556648414524
1.0698224662351876
1.0035449096851337
1.0031568982454802
1.003351435700916
1.0041283492880244
1.0045480024896865
1.0061844093190302
1.0075849560458259
1.0055370179077783
1.0085721334332192
1.011722071994904
1.0104033158189747
1.0139270179176134
1.0208731771351063
1.0158334217409277
1.0270743051235296
1.0342521732972019
1.051505429243281
1.042562082417104
1.039556706566733
1.0362112339470804
1.0980435920164064
1.0884747660153644
1.030222629392219
1.026617748457896
1.019376448819517
1.0777981806512713
1.08699608363561
1.0498144935106706
1.0417081051095822
1.0271153359812917
1.033926273687785
1.0581499446793596
1.0211277924645377
1.0654241818522434
1.0754785720780005
1.0715896555561224
1.0810291667787875
1.0859076136376937
1.065560421438723
1.0740717861926625
1.0562842958985812
1.0470323713325587
1.0383626599803393
1.030604475289185
1.0238980840032368
1.0163204859018884
1.0121235365305774
1.0182792587991734
1.0089275204811605
1.013700677980675
1.010077578243737
1.0065003904056324
1.0073102833590097
1.005304971186222
1.004773307489237
1.0036843056368432
1.0039874089814673
1.0032948804340218
1.0031996900632854
1.0240373576589064
1.03778271121157
1.054027665640172
1.0247321279353478
1.034023728533005
1.0720977954308561
1.0654174776978007
1.0766798885073838
1.0694555700169845
1.0590427059026555
1.0841870038780959
1.075105597153582
1.024234064454029
1.0512398239140843
1.0196470454983426
1.0091319940713288
1.079060529448814
1.070403240187309
1.0344440064018652
1.0027017718376172
1.0033116067799959
1.0039833365160746
1.0061442473484026
1.0075903525934187
1.0117379898030758
1.0131967722782487
1.0208948220534988
1.0530712580456862
1.0269044501423292
1.0769456126069241
1.0853521982405419
1.0490327201173553
1.0329780828714148
1.0415769128713535
1.0531510677403109
1.0023830258247728
1.00266931890009
1.0039418912285487
1.0050219756254435
1.0079147627191178
1.0097441059209917
1.0144741786874023
1.0255108296081001
1.0411378680017958
1.107972034005624
1.0992860060471792
1.0766662395763524
1.0879553705098919
1.0607630654355034
1.0029734871489753
1.0032515758610412
1.0031706623575545
1.0612209313858911
1.00375270879746
1.0043770223649298
1.0056003463775802
1.0053642799989413
1.0069008654624039
1.0083446694306144
1.0107080772198775
1.0101583381825328
1.0127990592635487
1.0154620519366757
1.019279423517156
1.0265465389114539
1.0680748969896414
1.0320716499836582
1.0420100804430479
1.0488854790671411
1.0174362727218558
1.045787325876753
1.0304818269098661
1.0386471658219854
1.001457016627683
1.0217583110543056
1.038965910432813
1.0837777928124683
1.0744046642908605
1.0002569121880902
1.0282062276790729
1.0692428658644053
1.0781093475631078
1.0039401957271965
1.087521509337097
1.0771331067960161
1.0872136410089475
1.0783251135101075
1.0690638753793609
1.0624278431931615
1.0620060166109213
1.0185975170764825
1.0010538007808272
1.0163453082726954
1.0065916817972056
1.076190835815813
1.0872104888816148
1.05281872228527
1.0469710938951624

SCALARS Omega double
LOOKUP_TABLE default
4.100276590899359
-10.327730795977544
-14.268649564327625
0.13217857042833622
4.492515426362922
-2.683794553896215
-4.473557661084105
3.5422922228055755
1.0314781535559487
20.842645460366292
-8.188675201730288
-0.4094725232036138
-0.8985275668769697
-0.23421396178392845
-0.11369098150099295
-0.03061211415792657
-0.11116901187905896
-0.18643504343021003
-0.6569892815247892
-0.6110339265851631
-6.115745385686131
17.94367058468307
3.512463678289315
-1.0379081269939527
0.14534828384809934
0.03351225763535648
-0.3220314020872417
2.1113617294898592
1.0918367788770418
0.7143021738454897
0.5849518483949744
0.5327239423947524
0.5070780229717208
0.4781901954425149
0.44153688716219147
0.39741178090338014
0.34773268598868057
0.2962463962794268
0.24497892100824503
0.19618313441542604
0.15080900401098413
0.10952048350907088
0.07261347492569621
0.040333455166763434
0.012569704747763356
-0.011155349411630813
-0.03108181767995463
-0.04752458839920093
-0.060811395489176544
-0.07154132258615407
-0.08001354998487518
-0.08658310437596153
-0.09151389500372344
-0.09520529856584783
-0.09785149037121818
-0.09967300019117596
-0.10081313733352404
-0.10146383000087794
-0.10170958358411228
-0.10162686564343919
-0.10124795782569883
-0.10059290641382354
-0.09964828972093398
-0.09834302870850904
-0.09661227724419034
-0.09434272115986807
-0.0914262558504864
-0.08763222410935115
-0.0827984286182278
-0.07668844290225034
-0.06909526844754298
-0.05954731523385834
-0.047802901331184665
-0.033664972110725895
-0.01647275007810626
0.003910500609203306
0.027743083062637022
0.05530912176222602
0.08677693447742754
0.12203690589797443
0.16057613222246922
0.20168960579864337
0.24401350643806485
0.2859350894385111
0.32478694649350814
0.35760137051266316
0.37954715529234606
0.38524800523138775
0.3706556222307053
0.33000239108813256
0.2610341031385525
0.1651091933117815
0.06635078659640227
0.31510667845636325
0.3393627789813664
-0.11646412732156988
-0.13091185610325776
-0.10570544176496001
-0.11366535188369518
-0.12385496948242512
0.717832807675648
0.8448250619591734
0.046919300423331915
0.4698816283264928
0.408124747411637
0.1669496081377804
0.0028975482745777987
-0.07395212469769637
-0.10007943943444604
-0.10519634200981885
-0.10385548355357677
-0.10230780534888652
-0.09843631554065221
-0.08460653128590957
-0.04068562349687936
0.30650981084702295
0.09488991746150997
0.051862509378966234
0.21730105488956558
0.43991741036013193
0.5280590909311302
-0.1016807345284948
-0.09715105001743801
-0.10234065257857146
-0.08372761881596986
-0.0965915964123894
-0.0732044416934429
-0.01117193102245735
-0.048931334724824777
0.11627850770204046
0.3207472811969919
0.40938443068575436
0.49085197038719053
0.13352109617787736
2.24906011976898
2.527400928369629
0.31560108662413255
0.007244178046177145
-0.3187831363424574
0.43428948411438256
-0.10231092327138253
-0.09981692525220397
-0.10036160906061622
-0.09157789908681332
-0.0871125902238346
-0.06873061936755608
-0.046554570838970376
0.0463340603301583
0.2135102035577731
0.04064205037157414
-0.14344316602668228
-0.11680355722661705
-0.12342029408872189
-0.10619346633541654
0.9676272325817018
0.5747828402529093
-0.03102886899490078
0.23799457160907617
0.14049951460556237
0.45038740889517
0.2219093744797273
0.06523625463317502
-0.09857906835571834
0.3875232245625255
-0.03006943279361839
-0.41888398907753527
-0.15081365941304375
0.03255470438456616
0.27537492148686044
-0.10461616167177196
-0.1080751832570271
-0.10488148985686883
-0.11268902111453902
-0.10497213859782178
-0.113105997088975
-0.08190653032768871
-0.07324263319845295
0.8361155031943887
0.6923071888154333
-0.20088340292377013
-0.09796264727896395
-0.14249513414321271
-0.20891314116691745
-0.11464430880376528
0.32160350043604224
0.39908267527607344
0.5432661526115362
0.5181516060752086
-0.30164007126055176
0.3762588674798714
0.46768784753770287
-0.10188407312801698
-0.10167070043624482
-0.10038420780949225
-0.0978843972129497
-0.10072930012621337
-0.09731626607072298
-0.08620622583312361
-0.09350530053011326
-0.09023276275374834
-0.07756312911694833
-0.07426980949462857
-0.05627397314618412
-0.024308273577260845
-0.0564985897531644
0.023020099821485337
0.08697762424359484
0.2689062165315746
0.1706292245059846
-0.6191909300731722
-0.5147470847360274
2.329445224910498
1.9777754325965984
-0.011509735610610396
-0.23816940763570096
-0.12062839011757615
0.16690677668500198
-1.0217322045342276
0.265526280929174
0.18017280124388926
0.039206148440793016
0.10148348628672436
0.3466251474128639
-0.008566667429141528
0.3920916328952863
0.21860644204009735
0.36523518435705765
0.5338230400891715
0.7124939979012562
0.42341547313076816
0.4972714401869622
0.32227161941203863
0.2188035721961173
0.12752218846529742
0.053812361000997844
-0.0016606501066476283
-0.041427648634673554
-0.065540309100111
-0.04122241843112907
-0.08056138007633099
-0.06760899075321303
-0.0843158674835418
-0.09007820581702666
-0.09403104200783347
-0.09919240775906697
-0.09582606544521667
-0.0992188596567741
-0.10139610160077635
-0.10184407271281631
-0.1010833199058328
0.0139622522547003
0.13979944002505598
0.30760252687387657
-0.26389127383808836
0.09725913410629844
0.6218180595959616
0.5337798653613632
2.90399537741221
2.1556482067364073
0.38564602109183577
0.4315959593062666
0.4734073823820238
0.005161759046806711
0.30623706294330116
-0.02441038348123095
-0.28101069683793767
0.5921227817551047
0.5085895252092453
0.07552629399955453
-0.1032229665449419
-0.1047289368624455
-0.10082993606091356
-0.10385718097216912
-0.09299651372032451
-0.08998796901530498
-0.07147385014665185
-0.04182883758694182
0.31016150220132194
0.034135991522613325
1.2523254611895824
1.4785748225428423
0.2651621008854052
0.09036934128933741
0.18033095540878136
0.4136173790445147
-0.10537196518804234
-0.10433475374505381
-0.11016426437623159
-0.10444550499060141
-0.1120011586142905
-0.0977274684683811
-0.0991526250058554
-0.028490042566711025
0.144231063662161
5.598342302422799
5.403331021376919
-0.012855761114969956
2.097569030415508
0.48885287029991503
-0.10265928697659056
-0.10312383360660063
-0.10135194340733104
0.40199689995982857
-0.09983805280977112
-0.1027029737860605
-0.10100566625881485
-0.09587048168939424
-0.09124247692674685
-0.094878190609346
-0.08672286754801894
-0.07944071411182878
-0.06713690698268955
-0.06531830651817651
-0.042286176727073944
0.010999426761873132
0.4886783082899803
0.06039491957291443
0.16287202272260795
0.24370900246421578
-0.06902116973087621
0.22262509092139787
0.06938332917933125
0.1491412766418531
-0.10985028271493628
-0.16829937882533771
0.15224910666569585
0.38217091755074817
0.37518986542001787
-0.08900149818214809
0.03241088247331904
0.44000536723419065
0.5321896092872171
-0.1340929813067015
0.4668976833551191
0.011219789422660446
-0.5101373604368307
0.34085160649402935
1.0203185727805562
0.9271598515965973
0.37332386703247755
-0.026222500141488074
-0.17256911208633002
-0.052967202894227385
-0.1661729548968202
0.1185608033514156
1.2482118259353974
0.5729328672107155
-1.2167721131794602

SCALARS Vx_analytic double
LOOKUP_TABLE default
4.100276590899359
-10.327730795977544
-14.268649564327625
0.13210637950428197
4.492515426362922
-2.683794553896215
-4.473557661084105
3.5422922228055755
1.0314781535559487
20.842645460366292
-8.188675201730288
-0.4094725232036138
-0.8985275668769697
-0.23421396178392845
-0.11369098150099295
-0.03061211415792657
-0.11116901187905896
-0.18643504343021003
-0.656989281524789
-0.6110339265851631
-6.115745385686131
17.94367058468307
3.5132646959337275
-1.0157705221694244
0.14755554007286922
0.03451969893819027
-0.32007619870088194
2.1113617294898592
1.0918367788770418
0.7143021738454897
0.5849518483949744
0.5327239423947524
0.5070780229717208
0.4781901954425149
0.44153688716219147
0.39741178090338014
0.34773268598868057
0.2962463962794268
0.24497892100824503
0.19618313441542604
0.15080900401098413
0.10952048350907088
0.07261347492569621
0.040333455166763434
0.012569704747763356
-0.011155349411630813
-0.03108181767995463
-0.04752458839920093
-0.060811395489176544
-0.07154132258615407
-0.08001354998487518
-0.08658310437596153
-0.09151389500372344
-0.09520529856584783
-0.09785149037121818
-0.09967300019117596
-0.10081313733352404
-0.10146383000087794
-0.10170958358411228
-0.10162686564343919
-0.10124782453969225
-0.10059293896723986
-0.09964845202694517
-0.0983434989440305
-0.09661311843885996
-0.09434451592921587
-0.09142861601813737
-0.08763596786329558
-0.08280334033364299
-0.07669661146851571
-0.06910495915457333
-0.05956144645760375
-0.04782298562216961
-0.03367245862237869
-0.01648538981899094
0.003888411004177904
0.027721519741831787
0.05529747533842276
0.08676828099603498
0.12202034485714566
0.1605745314183275
0.20170954718556
0.2440664351599802
0.28600158436885115
0.3248965451798035
0.35771286979359285
0.3797278572871402
0.3856007162132961
0.37102831633008215
0.3304074133295195
0.26136830563460994
0.16535185077886447
0.0663076676246203
0.3072890279757938
0.3371706142499341
-0.11573714638170704
-0.13079943890356613
-0.10570535444727158
-0.11372780181318982
-0.12456353016239935
0.7269997388594118
0.8347617252430976
0.04600727080968884
0.46799101167033264
0.41050734719091403
0.1669214634758707
0.0031366699289935417
-0.07378379683932157
-0.10001567189689671
-0.10518127003707861
-0.10385296246562466
-0.1023105258002359
-0.09846831969267134
-0.08473012689199265
-0.041016716885854614
0.3086317367906964
0.10164156785115415
0.05153787207426845
0.21754434391483876
0.4422804082046213
0.5270414712615898
-0.10168036368306328
-0.09715932060154456
-0.10233728175086498
-0.08377000448089132
-0.09657555979766082
-0.07315791193411653
-0.011102325963496657
-0.049075077677082184
0.1162527787278803
0.32025823037406975
0.4115959588641682
0.492155532965045
0.13340677264050685
2.256243746376089
2.4658842145164823
0.3162010452460157
0.007045943061022656
-0.3199528335064897
0.4335301036476623
-0.10230954474967956
-0.09981883745378874
-0.10035371519074357
-0.09159326730323117
-0.08708221290324636
-0.06878611336257086
-0.046483301417760275
0.04641118835077349
0.21338885536858093
0.04151052167066331
-0.14299730755233706
-0.11677288570227323
-0.1237611948488506
-0.10620445934701102
0.8926160212725406
0.5831067610499797
-0.031782754170985986
0.23793720692452672
0.14188665761248778
0.4592261057654202
0.22203848163695544
0.06507796809089111
-0.09857956985870639
0.38847507807523585
-0.03015694080055641
-0.41751390981421266
-0.1508969183070128
0.03283307534403881
0.27463727449611813
-0.10461649133668438
-0.10806434477478905
-0.10490610048685471
-0.11263371760003368
-0.10508948246123809
-0.11291174938691537
-0.08229300534939739
-0.07287632392226032
0.8282370824959526
0.6979119990789915
-0.20066822574497808
-0.09797116826030139
-0.14243483068185198
-0.20985492071784553
-0.11468426097710299
0.3229199862504894
0.4004661606288712
0.5455847677086504
0.5182087427071876
-0.3007930974414444
0.3759623340361095
0.467291989587301
-0.10188332737985156
-0.10167020425038945
-0.10038502592237879
-0.09788823568587184
-0.10072764495342389
-0.0973125343033665
-0.08622901295047174
-0.0935173528047872
-0.0902264079245369
-0.07755275323031656
-0.07432039199750497
-0.056350995511319966
-0.024297349277840597
-0.05648791722578524
0.02301212575251075
0.08694559928475981
0.26873183100832376
0.17053225516261503
-0.6002055561039668
-0.5404004024152964
2.3324891608063525
1.995213323669216
-0.014257358509120565
-0.23526584196779493
-0.12196078578730243
0.16889580920631614
-1.0064285292260764
0.26576571637386726
0.1801371877666823
0.039050867210205696
0.10135564361185016
0.3473621980131196
-0.008684317906181526
0.39328239667709913
0.2197150069900244
0.3663367860929305
0.5347506765370478
0.7167242438925688
0.42311179404564236
0.49705399022253144
0.3221079650966453
0.21875178412555354
0.12751921496836138
0.053843933497024155
-0.0016322876091581508
-0.041511909742069565
-0.06558852267993083
-0.04119317647767793
-0.08058918369615457
-0.06759113036297626
-0.08430334466221617
-0.09009149903642544
-0.09402488905742626
-0.0991892062394827
-0.09583184292496962
-0.0992206431334004
-0.10139490657837046
-0.10184360711211836
-0.1010834124451106
0.013839358322683345
0.13970756663295775
0.30797848356670543
-0.2698286976600222
0.09687450611497836
0.6181302600571947
0.5377275133226911
2.803641244850197
1.9883210009402095
0.38716987953187826
0.42802012374017967
0.4775215944242227
0.004780603907208528
0.3069585326772288
-0.024649600015692632
-0.28242466379807885
0.5891893004160534
0.5124021153833269
0.0756995240344146
-0.1032224580243025
-0.10472312491893686
-0.10084272988170447
-0.10382419293142126
-0.09306743003023116
-0.08988416930726405
-0.07166214172512479
-0.04160908137762096
0.30944238295962156
0.03395512518272458
1.265000153452089
1.4602339630582704
0.26559395269407576
0.09019050157763646
0.18038623663920236
0.4148559105076402
-0.10536896064289479
-0.10433929851359726
-0.11013665722909807
-0.10448760161924699
-0.1118919457887011
-0.097905510726512
-0.09883423214484788
-0.02803120434305688
0.1441547260538949
5.320999423392292
5.209113620472447
-0.01209332727982482
2.094004460803269
0.4859303616970229
-0.10265781870273061
-0.1031214317937864
-0.10135355889060679
0.40109114411679625
-0.09984341926753619
-0.10269515095049953
-0.10099102372681176
-0.09589104018975021
-0.09127527389147574
-0.09484443515511046
-0.08667060292793069
-0.07952305074805327
-0.06724860861026742
-0.06522695972831104
-0.04217311424461918
0.011130155768856348
0.4872496264175431
0.060495843352848085
0.16281780595155568
0.24343739653189533
-0.06948058604200574
0.22266343611050204