# vtk DataFile Version 1.0
2D Simulation C++
ASCII
DATASET UNSTRUCTURED_GRID
FIELD FieldData 1
NODES 1 2 int
348 601

POINTS 348 double
0.0 0.5 0.0
0.0 1.0 0.0
2.0 1.0 0.0
2.0 0.5 0.0
0.0 0.528801679611206 0.0
0.0 0.564507782459259 0.0
0.0 0.6110168099403381 0.0
0.0 0.6721802353858948 0.0
0.0 0.7528436183929443 0.0
0.0 0.8593378663063049 0.0
0.16666941344738007 1.0 0.0
0.3333356976509094 1.0 0.0
0.5000020265579224 1.0 0.0
0.6666678786277771 1.0 0.0
0.8333337306976318 1.0 0.0
1.0 1.0 0.0
1.1666662693023682 1.0 0.0
1.3333321809768677 1.0 0.0
1.4999979734420776 1.0 0.0
1.6666642427444458 1.0 0.0
1.8333306312561035 1.0 0.0
2.0 0.8593378663063049 0.0
2.0 0.7528436183929443 0.0
2.0 0.6721802353858948 0.0
2.0 0.6110168099403381 0.0
2.0 0.564507782459259 0.0
2.0 0.528801679611206 0.0
0.029850948601961136 0.5 0.0
0.05970168858766556 0.5 0.0
0.08955242484807968 0.5 0.0
0.1194031685590744 0.5 0.0
0.14925390481948853 0.5 0.0
0.17910465598106384 0.5 0.0
0.20895539224147797 0.5 0.0
0.2388061285018921 0.5 0.0
0.2686568796634674 0.5 0.0
0.29850760102272034 0.5 0.0
0.32835835218429565 0.5 0.0
0.35820910334587097 0.5 0.0
0.3880598247051239 0.5 0.0
0.4179105758666992 0.5 0.0
0.44776129722595215 0.5 0.0
0.47761204838752747 0.5 0.0
0.5074627995491028 0.5 0.0
0.5373135209083557 0.5 0.0
0.5671642422676086 0.5 0.0
0.5970150232315063 0.5 0.0
0.6268657445907593 0.5 0.0
0.6567164659500122 0.5 0.0
0.6865672469139099 0.5 0.0
0.7164179682731628 0.5 0.0
0.7462686896324158 0.5 0.0
0.7761194705963135 0.5 0.0
0.8059701919555664 0.5 0.0
0.8358209133148193 0.5 0.0
0.865671694278717 0.5 0.0
0.89552241563797 0.5 0.0
0.9253731369972229 0.5 0.0
0.9552239179611206 0.5 0.0
0.9850746393203735 0.5 0.0
1.0149253606796265 0.5 0.0
1.0447760820388794 0.5 0.0
1.0746268033981323 0.5 0.0
1.1044776439666748 0.5 0.0
1.1343283653259277 0.5 0.0
1.1641790866851807 0.5 0.0
1.1940298080444336 0.5 0.0
1.2238805294036865 0.5 0.0
1.2537312507629395 0.5 0.0
1.2835819721221924 0.5 0.0
1.3134328126907349 0.5 0.0
1.3432835340499878 0.5 0.0
1.3731342554092407 0.5 0.0
1.4029849767684937 0.5 0.0
1.4328356981277466 0.5 0.0
1.4626864194869995 0.5 0.0
1.492537260055542 0.5 0.0
1.522387981414795 0.5 0.0
1.5522387027740479 0.5 0.0
1.5820894241333008 0.5 0.0
1.6119401454925537 0.5 0.0
1.6417908668518066 0.5 0.0
1.6716417074203491 0.5 0.0
1.701492428779602 0.5 0.0
1.731343150138855 0.5 0.0
1.761193871498108 0.5 0.0
1.7910445928573608 0.5 0.0
1.8208953142166138 0.5 0.0
1.8507460355758667 0.5 0.0
1.8805968761444092 0.5 0.0
1.910447597503662 0.5 0.0
1.940298318862915 0.5 0.0
1.970149040222168 0.5 0.0
1.7358819246292114 0.7499510645866394 0.0
0.2656642198562622 0.7486277222633362 0.0
0.49981194734573364 0.737183690071106 0.0
0.74151611328125 0.7359843254089355 0.0
0.9774143695831299 0.7371892929077148 0.0
1.201690912246704 0.7367381453514099 0.0
1.447761058807373 0.7383390665054321 0.0
1.8591958284378052 0.6421071290969849 0.0
0.14080412685871124 0.6421071290969849 0.0
1.588537573814392 0.6783608794212341 0.0
0.2553686201572418 0.6221352219581604 0.0
1.7466964721679688 0.6278358101844788 0.0
0.38199201226234436 0.6273008584976196 0.0
0.5013589859008789 0.6272794008255005 0.0
0.6207823157310486 0.6272526383399963 0.0
0.7401852607727051 0.627252459526062 0.0
0.8595882654190063 0.6272523999214172 0.0
0.9701492786407471 0.6212864518165588 0.0
1.0807102918624878 0.6272523999214172 0.0
1.2001131772994995 0.6272523999214172 0.0
1.3195161819458008 0.6272523999214172 0.0
1.4488563537597656 0.6310953497886658 0.0
1.9247323274612427 0.5706554055213928 0.0
0.07526770234107971 0.5706554055213928 0.0
1.5377081632614136 0.5910930037498474 0.0
1.6566967964172363 0.5934624075889587 0.0
1.8074009418487549 0.5708622932434082 0.0
0.1940300166606903 0.5737577676773071 0.0
1.0286364555358887 0.5665481686592102 0.0
1.14803946018219 0.5665481686592102 0.0
0.9116620421409607 0.5665481686592102 0.0
1.2674424648284912 0.5665481686592102 0.0
0.7922590970993042 0.5665481686592102 0.0
0.6728560328483582 0.5665482878684998 0.0
0.5534531474113464 0.5665481686592102 0.0
1.3892061710357666 0.5727682709693909 0.0
0.43402159214019775 0.5665869116783142 0.0
0.3146642744541168 0.5667200088500977 0.0
1.8656742572784424 0.5607567429542542 0.0
0.1343258023262024 0.5607567429542542 0.0
1.5970147848129272 0.5642029047012329 0.0
1.8783670663833618 0.7786769866943359 0.0
0.12163297086954117 0.7786769866943359 0.0
1.7164177894592285 0.562579333782196 0.0
1.4776118993759155 0.5620538592338562 0.0
1.5857784748077393 0.867691159248352 0.0
0.25373148918151855 0.5588531494140625 0.0
0.9701492786407471 0.5582930445671082 0.0
1.0895521640777588 0.5582930445671082 0.0
0.8507462739944458 0.5582930445671082 0.0
1.20895516872406 0.5582930445671082 0.0
0.7313433289527893 0.5582930445671082 0.0
1.3283581733703613 0.5582930445671082 0.0
0.6119403839111328 0.5582930445671082 0.0
0.49253740906715393 0.5582930445671082 0.0
0.37313446402549744 0.5582956075668335 0.0
0.36864349246025085 0.7376502752304077 0.0
0.602456271648407 0.7355343103408813 0.0
0.8441241383552551 0.7366551756858826 0.0
1.3355978727340698 0.7366551160812378 0.0
1.0895521640777588 0.7378703355789185 0.0
0.07051979005336761 0.6486480832099915 0.0
1.9294801950454712 0.6486480832099915 0.0
1.5086064338684082 0.6743985414505005 0.0
1.6785967350006104 0.6649783849716187 0.0
1.9543375968933105 0.5452249050140381 0.0
0.04566239193081856 0.5452249050140381 0.0
1.6567095518112183 0.5496091842651367 0.0
1.53738272190094 0.5491842031478882 0.0
0.91306072473526 0.8965699672698975 0.0
1.7782752513885498 0.5446287989616394 0.0
1.4163299798965454 0.5447981357574463 0.0
0.4287482798099518 0.8945969939231873 0.0
1.2610714435577393 0.8950135707855225 0.0
0.4313095211982727 0.6832783222198486 0.0
0.31561949849128723 0.6858259439468384 0.0
1.029850721359253 0.6781684160232544 0.0
0.9082015752792358 0.6848641633987427 0.0
1.1492537260055542 0.6781684160232544 0.0
0.7886138558387756 0.678956151008606 0.0
1.2709345817565918 0.684736430644989 0.0
0.6685023903846741 0.6868807673454285 0.0
1.4007169008255005 0.6702371835708618 0.0
0.5483440160751343 0.6792802214622498 0.0
0.19808045029640198 0.6887137293815613 0.0
1.797759771347046 0.6853783130645752 0.0
0.6811949610710144 0.8757594227790833 0.0
1.0189321041107178 0.8474968671798706 0.0
0.7922950983047485 0.8446238040924072 0.0
1.3765455484390259 0.8590760827064514 0.0
1.1571698188781738 0.8478953838348389 0.0
1.8954496383666992 0.5359624624252319 0.0
1.8360060453414917 0.5359931588172913 0.0
0.10455036163330078 0.5359624624252319 0.0
0.16417928040027618 0.5353734493255615 0.0
0.5530290007591248 0.8422092199325562 0.0
0.2832632064819336 0.5367912650108337 0.0
0.22469767928123474 0.5394234657287598 0.0
0.9405550956726074 0.5357381105422974 0.0
0.9997434020042419 0.5357381105422974 0.0
1.0600273609161377 0.5365630984306335 0.0
1.1191463470458984 0.5357381105422974 0.0
0.8802711367607117 0.5365630984306335 0.0
0.8211521506309509 0.5357381105422974 0.0
1.2385493516921997 0.5357381105422974 0.0
1.179430365562439 0.5365630984306335 0.0
0.7608681321144104 0.5365630984306335 0.0
0.7017492055892944 0.5357381105422974 0.0
1.2988333702087402 0.5365630984306335 0.0
1.357560396194458 0.5390686392784119 0.0
0.5823462605476379 0.5357381105422974 0.0
0.6414651870727539 0.5365630984306335 0.0
0.5220622420310974 0.5365630984306335 0.0
0.4629422128200531 0.535739541053772 0.0
0.3435409665107727 0.5357455015182495 0.0
0.4026572108268738 0.5365669131278992 0.0
0.21006634831428528 0.8590372204780579 0.0
1.7943172454833984 0.8627070188522339 0.0
0.06134982034564018 0.7191494703292847 0.0
1.938650131225586 0.7191494703292847 0.0
1.634666085243225 0.7584379315376282 0.0
0.3355695903301239 0.8387951850891113 0.0
1.537941336631775 0.7633647918701172 0.0
1.9670078754425049 0.574067234992981 0.0
0.032992132008075714 0.574067234992981 0.0
1.6862140893936157 0.5314788222312927 0.0
1.6272135972976685 0.5317342281341553 0.0
1.5077245235443115 0.5309156775474548 0.0
1.5668202638626099 0.5316618084907532 0.0
1.7466963529586792 0.5298213958740234 0.0
1.4473658800125122 0.5297333002090454 0.0
1.804386019706726 0.5275400876998901 0.0
1.9283779859542847 0.5282225012779236 0.0
1.8656879663467407 0.5267112255096436 0.0
0.13432854413986206 0.5271331071853638 0.0
0.07162196189165115 0.5282225012779236 0.0
0.25373148918151855 0.527070939540863 0.0
0.19419340789318085 0.5297109484672546 0.0
0.31349387764930725 0.5272363424301147 0.0
0.37313446402549744 0.5270199179649353 0.0
0.4329495429992676 0.5274069309234619 0.0
0.49253740906715393 0.5270196795463562 0.0
0.5523557066917419 0.5274024605751038 0.0
1.3898069858551025 0.5277745127677917 0.0
1.3283581733703613 0.5270196795463562 0.0
0.6119403839111328 0.5270196795463562 0.0
1.2685397863388062 0.5274024605751038 0.0
0.6717586517333984 0.5274024605751038 0.0
0.7313433289527893 0.5270196795463562 0.0
1.20895516872406 0.5270196795463562 0.0
0.7911616563796997 0.5274024605751038 0.0
0.8507462739944458 0.5270196795463562 0.0
1.1491369009017944 0.5274024605751038 0.0
1.0895521640777588 0.5270196795463562 0.0
0.9105646014213562 0.5274024605751038 0.0
0.9701492786407471 0.5270196795463562 0.0
1.0297338962554932 0.5274024605751038 0.0
1.4776118993759155 0.5259945392608643 0.0
1.597015619277954 0.5255197882652283 0.0
1.7164177894592285 0.525999903678894 0.0
1.6834615468978882 0.8477573990821838 0.0
1.5822722911834717 0.6086509227752686 0.0
0.20459823310375214 0.6270732283592224 0.0
1.8037469387054443 0.6209055185317993 0.0
0.09990309923887253 0.8589919805526733 0.0
1.9000968933105469 0.8589919805526733 0.0
1.75603187084198 0.5789161324501038 0.0
0.10896337777376175 0.5982794761657715 0.0
1.8910366296768188 0.5982794761657715 0.0
1.4950518608093262 0.605266273021698 0.0
1.7049394845962524 0.6007562279701233 0.0
1.4387125968933105 0.5775743722915649 0.0
1.489302158355713 0.851039469242096 0.0
0.15732239186763763 0.5961292386054993 0.0
1.8436260223388672 0.5944437384605408 0.0
0.4399496018886566 0.6259797215461731 0.0
1.022565245628357 0.6257523894309998 0.0
[...]
POINT_DATA 348
SCALARS Psi double
LOOKUP_TABLE default
1.0878984745059195
1.0
1.0
1.076668469256642
1.0877880062308758
1.0875451104726963
1.0891468084440865
1.0938728055775013
1.1033510760286014
1.1418217491790552
1.0
1.0
1.0
1.0
1.0
1.0
1.0
1.0
1.0
1.0
1.0
1.1342685463948639
1.0942751242409656
1.0844750354831822
1.0798819113724067
1.0777145537983446
1.076859054192026
1.0879812890902072
1.0867118737203671
1.084822304727302
1.0824207999612785
1.0794798105856394
1.0760237479536194
1.0721218737328353
1.0678672938765674
1.06338346078604
1.0587584764216096
1.0540920620728205
1.049463046890957
1.044956522337863
1.0406243933955657
1.036494424835625
1.032599619288093
1.0289672844690574
1.025610940001575
1.0225183845118484
1.019694496826322
1.0171381906735368
1.0148448620382102
1.0127905844151868
1.010968779186521
1.009369171562934
1.0079826246132664
1.0067887562643625
1.0057803759758304
1.0049494028548862
1.004289002796238
1.0037866646418085
1.0034382993190765
1.0032411995659953
1.003193444263999
1.0032914481784276
1.0035346311375268
1.0039285742433688
1.0044762170590076
1.0051807818982692
1.0060462357461992
1.007085952907019
1.0083062724644178
1.0097144700031622
1.0113162605269264
1.0131345528458295
1.0151740580343662
1.0174309700493598
1.0199346785756116
1.0226764930901482
1.0256555034855532
1.028872214843617
1.0323240682515775
1.0359903891850186
1.0398395377927852
1.0438338440270756
1.0479255363452384
1.0520543032562286
1.0561439082955963
1.0601072579917987
1.063838174018795
1.0672402127748202
1.0702047587100587
1.0726291927367755
1.0744756476862993
1.075749127457687
1.0764613444357785
1.0467867111097477
1.0518854974995306
1.020119954567467
1.0058086488405245
1.00167308907323
1.0036439487144648
1.013915967140928
1.0733682570847214
1.0821127466395348
1.0311074484642162
1.0635343109924533
1.0566896057905444
1.042553003594731
1.0268241535057554
1.015624362388416
1.0084497788026174
1.0043633587493623
1.0028457867716807
1.0030421303403585
1.0054010944040004
1.010298851892446
1.0190457071421446
1.0762815970208373
1.0856765450456412
1.029251343432489
1.0445295116975006
1.0659083918864352
1.0740341916067162
1.0030690600136973
1.0045811566254812
1.003818930540981
1.0086117114269157
1.0070315646224728
1.0132384594371586
1.023204180441692
1.0157540903958482
1.0374860201990472
1.0554784179709253
1.071980830286009
1.081161640126501
1.037206961607508
1.078243879475634
1.086358019489146
1.0536728172764955
1.0235734735172646
1.0130768691662626
1.0652546100949487
1.0031970524730127
1.0035798881935643
1.0051657431279089
1.0063427129972862
1.0098477968555466
1.0118732770505445
1.017911442659963
1.0300947466121233
1.0464794892479894
1.0356947694515581
1.0123546184430505
1.0031387426964242
1.0079927420496273
1.0019375177825476
1.0902638557374296
1.080784317872813
1.022636796751749
1.044579793151836
1.07664865299247
1.0869297742305144
1.0454993564028183
1.0301804044160834
1.0004324779457145
1.0622233994945987
1.0182593122279577
1.010523864373767
1.0014801910947342
1.0321300518410084
1.0494026491767947
1.0022866924228706
1.002832583244752
1.0035487593324013
1.0056184817133802
1.0068375194662311
1.0105844966847422
1.0140169693415866
1.0195846246205809
1.0716959174673115
1.063540204139434
1.0033690888747586
1.0005515289266016
1.0019091530081188
1.0044737988317907
1.0011770794818946
1.073882678653496
1.0689326686853917
1.083705853209867
1.0778577788647916
1.0080518454116594
1.0609556648015999
1.0698224662033171
1.0035449095528772
1.0031568981133818
1.0033514355710722
1.004128349162187
1.0045480023594857
1.0061844091927714
1.0075849559331436
1.0055370177879104
1.0085721333130866
1.0117220718823783
1.0104033157148802
1.0139270178227926
1.0208731770420267
1.0158334216377227
1.027074305041565
1.0342521732263195
1.0515054291938843
1.0425620823574009
1.0395567065611537
1.0362112339411218
1.0980435920039138
1.088474765997732
1.0302226293673078
1.026617748446219
1.019376448788733
1.0777981806244394
1.0869960836179273
1.049814493464474
1.0417081050560848
1.0271153359102434
1.0339262736258137
1.0581499446394118
1.0211277923836952
1.0654241818171064
1.0754785720491196
1.0715896555247877
1.081029166755705
1.085907613618229
1.0655604214028827
1.0740717861641018
1.05628429585388
1.0470323712778848
1.038362659914788
1.0306044752124581
1.0238980839152616
1.0163204858116228
1.0121235364305827
1.0182792587005498
1.0089275203721773
1.0137006778721849
1.0100775781267823
1.0065003902887601
1.0073102832350664
1.0053049710572748
1.0047733073656626
1.0036843055083051
1.0039874088494398
1.0032948803011428
1.0031996899315205
1.0240373575828998
1.0377827111537756
1.0540276655971688
1.0247321279254586
1.034023728479501
1.0720977954053788
1.0654174776673138
1.0766798885028093
1.069455570011367
1.0590427058656982
1.0841870038584465
1.0751055971259464
1.0242340643880594
1.0512398238739722
1.0196470454202295
1.0091319940554677
1.079060529425821
1.0704032401573642
1.0344440063442961
1.0027017717232882
1.0033116066653611
1.003983336408575
1.0061442472404099
1.0075903524984569
1.0117379897082426
1.0131967721968627
1.020894821976341
1.0530712580073516
1.0269044500744025
1.0769456125866192
1.0853521982253418
1.049032720072611
1.032978082811422
1.0415769128202008
1.053151067711623
1.0023830257252766
1.0026693188057276
1.003941891133648
1.0050219755394467
1.00791476263281
1.0097441058479248
1.0144741786151465
1.0255108295520228
1.0411378679621544
1.1079720339973003
1.0992860060360774
1.0766662395483462
1.087955370491593
1.0607630654084124
1.0029734870243032
1.0032515757368852
1.003170662235937
1.061220931349361
1.0037527086784617
1.004377022242905
1.0056003462581156
1.0053642798870406
1.0069008653554923
1.0083446693184102
1.0107080771129584
1.0101583380856995
1.0127990591731144
1.015462051840646
1.0192794234283074
1.026546538835542
1.0680748969585958
1.0320716499156914
1.0420100803880321
1.048885479019188
1.0174362726640072
1.0457873258268324
1.0304818268431855
1.0386471657761407
1.0014570165754402
1.0217583110289161
1.0389659103822075
1.083777792792031
1.0744046642618987
1.0002569121773368
1.0282062276242914
1.0692428658326407
1.0781093475385584
1.00394019568537
1.087521509319077
1.0771331067684842
1.0872136409914486
1.0783251134840615
1.069063875364849
1.0624278431759804
1.0620060165734508
1.0185975169905457
1.0010538007721421
1.016345308195826
1.006591681752713
1.0761908357874126
1.0872104888628684
1.0528187222834895
1.046971093893172

SCALARS Omega double
LOOKUP_TABLE default
4.100276591395575
-10.32773079543626
-14.268649563397906
0.13217857057040497
4.492515426469462
-2.683794553308406
-4.4735576606349206
3.5422922230915743
1.0314781535196553
20.842645460337287
-8.188675201154123
-0.4094725223251495
-0.8985275653938972
-0.23421395942761458
-0.1136909786713553
-0.03061211119019741
-0.11116900932419445
-0.18643504131189048
-0.6569892800265975
-0.6110339256923832
-6.115745385050984
17.943670585109537
3.5124636782394014
-1.037908127011926
0.1453482836503024
0.0335122576962766
-0.3220314024806339
2.1113617298256773
1.0918367791703043
0.7143021740896374
0.5849518485730776
0.5327239424930031
0.5070780229781308
0.4781901953453624
0.4415368869511077
0.39741178056710763
0.34773268551743275
0.29624639566453914
0.24497892024277204
0.19618313349198543
0.1508090029246195
0.10952048225671156
0.07261347350640449
0.04033345357913554
0.012569702993095922
-0.011155351329575413
-0.031081819755347156
-0.04752459062710651
-0.060811397862202014
-0.07154132509422945
-0.08001355261641675
-0.08658310712086485
-0.0915138978499867
-0.09520530149860908
-0.09785149337482918
-0.09967300325198729
-0.10081314043690558
-0.10146383312963066
-0.10170958672119361
-0.10162686877437432
-0.1012479609365702
-0.10059290948862518
-0.09964829274355905
-0.09834303166583998
-0.09661228012447018
-0.09434272394967787
-0.09142625853744468
-0.08763222668430631
-0.08279843107412603
-0.07668844523079793
-0.06909527064199501
-0.05954731729102796
-0.04780290324996146
-0.033664973885457146
-0.016472751712202197
0.003910499114042098
0.027743081704734638
0.05530912053746221
0.08677693338047913
0.12203690492205266
0.16057613136084722
0.20168960504348785
0.2440135057808313
0.28593508886974955
0.32478694600397007
0.357601370093187
0.3795471549340749
0.38524800492440125
0.37065562196722374
0.33000239086053124
0.26103410293990725
0.16510919313847858
0.06635078647410975
0.315106678709749
0.33936277925755876
-0.11646412749211847
-0.13091185667442556
-0.10570544244128377
-0.1136653523741787
-0.12385496956468746
0.7178328075969986
0.8448250621504848
0.04691930011487302
0.4698816282080164
0.4081247471793685
0.16694960755829316
0.00289754717542997
-0.07395212630508216
-0.10007944145244191
-0.10519634428524889
-0.10385548595555531
-0.10230780758084325
-0.09843631749300952
-0.08460653283898159
-0.040685624540582034
0.3065098106910731
0.09488991775557074
0.05186250842975836
0.21730105434219724
0.43991741008700874
0.5280590909253182
-0.10168073739803432
-0.09715105264442758
-0.10234065547099157
-0.08372762102510273
-0.0965915990959146
-0.07320444395687563
-0.011171932718885945
-0.048931336381643056
0.1162785066333845
0.3207472807166088
0.40938443047307316
0.49085197054209523
0.13352109534942935
2.2490601200616265
2.527400928682848
0.31560108615768545
0.00724417673328062
-0.3187831354449014
0.43428948388203614
-0.10231092622107772
-0.09981692806404831
-0.10036161191588118
-0.09157790155477566
-0.0871125927520208
-0.06873062135340491
-0.04655457285694416
0.04633405892940281
0.2135102027840498
0.040642050454336755
-0.14344316639389085
-0.11680355787946615
-0.12342029435512106
-0.10619346693417298
0.9676272328609609
0.5747828401966556
-0.03102886952373208
0.23799457140300562
0.14049951445141123
0.45038740922754966
0.22190937382064566
0.065236253536226
-0.0985790664449702
0.3875232242055611
-0.03006943443440452
-0.41888398810740224
-0.15081365778138614
0.032554703942991536
0.27537492140950504
-0.10461616328969141
-0.10807518480278243
-0.10488149130466258
-0.1126890226060863
-0.10497213967851582
-0.11310599821853264
-0.0819065312013128
-0.07324263405403322
0.8361155033640508
0.69230718882766
-0.20088340153447073
-0.09796264604998062
-0.14249513301138877
-0.208913139984838
-0.11464430760700092
0.3216035002334062
0.39908267500536054
0.5432661528299744
0.518151606135881
-0.3016400703848693
0.37625886709557876
0.46768784739585784
-0.10188407620135419
-0.10167070349685454
-0.10038421079555228
-0.09788440007488534
-0.10072930314615403
-0.09731626898273028
-0.08620622829728637
-0.09350530320948255
-0.09023276549148299
-0.07756313163717496
-0.07426981170367401
-0.05627397508184698
-0.024308275533475733
-0.056498592003417586
0.02302009819073308
0.08697762293822697
0.2689062158620296
0.17062922353081134
-0.6191909294917896
-0.5147470841169399
2.3294452251188384
1.9777754326562507
-0.011509735355370906
-0.2381694070023089
-0.120628389884538
0.16690677657364117
-1.0217322041324424
0.26552628033288944
0.18017280045770703
0.039206147176577846
0.10148348527304653
0.34662514697215085
-0.008566668969850783
0.3920916325696406
0.2186064418607749
0.3652351841192662
0.5338230402322914
0.7124939981820033
0.4234154728675574
0.4972714401490146
0.322271618881627
0.21880357136846734
0.1275221873149969
0.05381235952118246
-0.0016606519172446006
-0.0414276504456394
-0.06554031119322612
-0.041222420552524064
-0.08056138243522024
-0.06760899316181494
-0.08431587013586432
-0.09007820841111515
-0.09403104486060801
-0.09919241075172734
-0.09582606824290134
-0.09921886260677736
-0.1013961046772618
-0.1018440758057417
-0.10108332295890413
0.013962250849889293
0.13979943912241374
0.307602526357119
-0.2638912731574024
0.09725913339109213
0.621818059633537
0.533779865187085
2.903995377801641
2.15564820726585
0.38564602074544946
0.4315959595356748
0.4734073822376705
0.005161758004365459
0.30623706254321004
-0.02441038489752113
-0.28101069591499667
0.5921227818732461
0.5085895250222361
0.07552629316157938
-0.10322296887730605
-0.10472893921778909
-0.1008299381918591
-0.1038571831614021
-0.09299651549748793
-0.0899879708580622
-0.07147385155956605
-0.04182883895740028
0.3101615018917749
0.034135990374430165
1.252325461261803
1.4785748227905107
0.2651621003447071
0.09036934035610471
0.18033095470585442
0.413617379000195
-0.10537196689888956
-0.10433475528591843
-0.11016426596226163
-0.10444550632402685
-0.11200116001572917
-0.09772746947777028
-0.09915262606973804
-0.028490043251686654
0.14423106337712302
5.598342302591973
5.403331021629126
-0.012855761299924898
2.0975690307106416
0.4888528703124194
-0.10265928973091232
-0.10312383634479719
-0.10135194605797498
0.4019968996810493
-0.09983805538477936
-0.10270297647367385
-0.1010056688839457
-0.09587048404946097
-0.0912424791447577
-0.09487819303127432
-0.08672286982799904
-0.0794407160357375
-0.06713690872751114
-0.06531830849044279
-0.04228617850092225
0.010999425356942929
0.4886783081711224
0.06039491839183614
0.1628720219132885
0.24370900185570388
-0.0690211703721667
0.22262509022681365
0.06938332803353386
0.149141276146856
-0.10985028243038177
-0.16829937846686469
0.15224910600441438
0.3821709177778026
0.3751898652402069
-0.08900149604138445
0.03241088177724114
0.44000536699578824
0.5321896093696454
-0.13409298090490118
0.4668976837179102
0.011219789281103393
-0.5101373601021402
0.34085160636952727
1.020318573090159
0.9271598518391074
0.37332386665029643
-0.026222501830741093
-0.17256911002194483
-0.05296720420535481
-0.16617295466227403
0.11856080318473212
1.2482118262422146
0.572932867615347
-1.2167721124875208

SCALARS Vx_analytic double
LOOKUP_TABLE default
4.100276591395575
-10.32773079543626
-14.268649563397906
0.1321063796459952
4.492515426469462
-2.683794553308406
-4.4735576606349206
3.5422922230915743
1.0314781535196553
20.842645460337287
-8.188675201154123
-0.4094725223251495
-0.8985275653938972
-0.23421395942761458
-0.1136909786713553
-0.03061211119019741
-0.11116900932419445
-0.18643504131189048
-0.6569892800265973
-0.6110339256923832
-6.115745385050984
17.943670585109537
3.513264695897702
-1.0157705221644115
0.1475555398779443
0.03451969899772525
-0.3200761990909266
2.1113617298256773
1.0918367791703043
0.7143021740896374
0.5849518485730776
0.5327239424930031
0.5070780229781308
0.4781901953453624
0.4415368869511077
0.39741178056710763
0.34773268551743275
0.29624639566453914
0.24497892024277204
0.19618313349198543
0.1508090029246195
0.10952048225671156
0.07261347350640449
0.04033345357913554
0.012569702993095922
-0.011155351329575413
-0.031081819755347156
-0.04752459062710651
-0.060811397862202014
-0.07154132509422945
-0.08001355261641675
-0.08658310712086485
-0.0915138978499867
-0.09520530149860908
-0.09785149337482918
-0.09967300325198729
-0.10081314043690558
-0.10146383312963066
-0.10170958672119361
-0.10162686877437432
-0.10124782765054327
-0.1005929420419402
-0.09964845504937389
-0.09834350190109359
-0.09661312131878895
-0.09434451871860049
-0.0914286187045797
-0.08763597043768358
-0.08280334278890236
-0.07669661379637173
-0.06910496134824806
-0.05956144851390405
-0.04782298754005207
-0.033672460396413445
-0.01648539145237356
0.0038884095097846383
0.027721518384719566
0.05529747411443538
0.08676827989983397
0.1220203438819721
0.16057453055740367
0.20170954643104697
0.24406643450333115
0.2860015838006747
0.32489654469078993
0.3577128693745324
0.3797278569292304
0.38560071590683315
0.3710283160671035
0.33040741310235155
0.2613683054363404
0.16535185060575602
0.06630766750195362
0.307289028217969
0.337170614520926
-0.11573714656013218
-0.13079943948012776
-0.10570535512391337
-0.11372780229948691
-0.12456353024138009
0.7269997387825904
0.8347617254271202
0.04600727050654038
0.46799101154748357
0.4105073469606205
0.1669214628910082
0.0031366688239107417
-0.07378379845270108
-0.10001567391902738
-0.10518127231498543
-0.10385296486821566
-0.1023105280307617
-0.09846832164148366
-0.08473012843988222
-0.04101671792383335
0.3086317366367714
0.10164156815105393
0.05153787112986755
0.21754434337179776
0.442280407935043
0.5270414712544088
-0.10168036655233861
-0.09715932322659414
-0.1023372846441089
-0.08377000668667003
-0.09657556248297601
-0.07315791420021266
-0.011102327663130232
-0.0490750793294195
0.1162527776560584
0.3202582298912352
0.41159595865398424
0.492155533120838
0.1334067718158257
2.2562437466215606
2.4658842148377023
0.316201044782564
0.007045941752144986
-0.319952832610993
0.43353010341349507
-0.10230954769969455
-0.09981884026471398
-0.10035371804726731
-0.09159326976903813
-0.08708221543358982
-0.06878611534530006
-0.046483303438571225
0.04641118694696798
0.2133888545922156
0.041510521744975826
-0.14299730792783777
-0.11677288635863586
-0.12376119510985688
-0.10620445994408738
0.8926160215205314
0.5831067609989035
-0.03178275469461043
0.2379372067214017
0.14188665745968645
0.45922610610657505
0.22203848098083054
0.06507796699728474
-0.09857956794859127
0.38847507772026496
-0.03015694243842543
-0.417513908845027
-0.15089691667409905
0.03283307489491902
0.27463727441335817
-0.10461649295414555
-0.10806434632248738
-0.10490610193156427
-0.1126337190957502
-0.10508948353649807
-0.11291175052286898
-0.0822930062166014
-0.07287632478518233
0.8282370826629118
0.6979119990900622
-0.20066822435964085
-0.09797116703089569
-0.14243482955312745
-0.20985491953469468
-0.11468425977837879
0.32291998604920324
0.4004661603599217
0.5455847679291156
0.5182087427677535
-0.30079309657106573
0.3759623336509473
0.4672919894446899
-0.1018833304533832
-0.10167020731102294
-0.10038502890795695
-0.0978882385467488
-0.10072764797373256
-0.0973125372159051
-0.08622901541255934
-0.09351735548254479
-0.09022641066298014
-0.07755275575138489
-0.07432039420403765
-0.056350997444093075
-0.02429735123511233
-0.056487919477036096
0.02301212412061198
0.08694559797828624
0.2687318303378095
0.17053225418635634
-0.6002055555256766
-0.5404004018209443
2.3324891610305825
1.9952133237033278
-0.014257358255229231
-0.2352658413396042
-0.12196078555213079
0.16889580909644572
-1.0064285288165968
0.26576571577977226
0.180137186982948
0.039050865948658524
0.10135564260067285
0.34736219757452125
-0.008684319444187693
0.3932823963532647
0.2197150068117797
0.36633678585643104
0.5347506766808974
0.7167242441775441
0.4231117937816519
0.497053990184185
0.32210796456543955
0.2187517832969996
0.12751921381715806
0.053843932016252725
-0.0016322894206565613
-0.04151191155064097
-0.06558852477114636
-0.041193178599949004
-0.08058918605330213
-0.06759113277234115
-0.08430334731521166
-0.09009150162917853
-0.0940248919107237
-0.09918920923253999
-0.09583184572164295
-0.09922064608284241
-0.1013949096550957
-0.10184361020514321
-0.10108341549803879
0.013839356920078082
0.1397075657324492
0.3079784830519211
-0.26982869697737955
0.0968745054046555
0.618130260090952
0.537727513152511
2.803641245253279
1.9883210013783186
0.38716987918867424
0.428020123966453
0.4775215942839111
0.004780602870165936
0.3069585322808129
-0.024649601427363114
-0.2824246628745323
0.5891893005315054
0.5124021151991661
0.0756995231907666
-0.10322246035633233
-0.10472312727565132
-0.10084273201006871
-0.10382419512380012
-0.09306743180288037
-0.08988417115472366
-0.07166214313220874
-0.041609082753819665
0.30944238264526036
0.03395512403854845
1.2650001535191493
1.4602339633011934
0.2655939521565158
0.09019050064836046
0.18038623593961886
0.41485591046487524
-0.10536896235447246
-0.10433930005249632
-0.11013665881848884
-0.10448760294827689
-0.11189194719586196
-0.09790551172982448
-0.0988342332162851
-0.028031205036254288
0.14415472576217842
5.320999423523963
5.209113620693761
-0.01209332746386267
2.0940044611019064
0.48593036170384274
-0.10265782145730493
-0.10312143453261698
-0.10135356154035023
0.40109114383529354
-0.09984342184097626
-0.10269515363957124
-0.10099102635380491
-0.09589104254705695
-0.09127527610624557
-0.09484443757976753
-0.0866706052109172
-0.07952305266772199
-0.06724861035058022
-0.06522696170435413
-0.04217311602228361
0.011130154359662778
0.48724962629618124
0.06049584216776361
0.16281780513830557
0.24343739591995148
-0.06948058667620247
0.22266343541758998
0.06925833770226347