# vtk DataFile Version 1.0
2D Simulation C++
ASCII
DATASET UNSTRUCTURED_GRID
FIELD FieldData 1
NODES 1 2 int
348 601

POINTS 348 double
0.0 0.5 0.0
0.0 1.0 0.0
2.0 1.0 0.0
2.0 0.5 0.0
0.0 0.528801679611206 0.0
0.0 0.564507782459259 0.0
0.0 0.6110168099403381 0.0
0.0 0.6721802353858948 0.0
0.0 0.7528436183929443 0.0
0.0 0.8593378663063049 0.0
0.16666941344738007 1.0 0.0
0.3333356976509094 1.0 0.0
0.5000020265579224 1.0 0.0
0.6666678786277771 1.0 0.0
0.8333337306976318 1.0 0.0
1.0 1.0 0.0
1.1666662693023682 1.0 0.0
1.3333321809768677 1.0 0.0
1.4999979734420776 1.0 0.0
1.6666642427444458 1.0 0.0
1.8333306312561035 1.0 0.0
2.0 0.8593378663063049 0.0
2.0 0.7528436183929443 0.0
2.0 0.6721802353858948 0.0
2.0 0.6110168099403381 0.0
2.0 0.564507782459259 0.0
2.0 0.528801679611206 0.0
0.029850948601961136 0.5 0.0
0.05970168858766556 0.5 0.0
0.08955242484807968 0.5 0.0
0.1194031685590744 0.5 0.0
0.14925390481948853 0.5 0.0
0.17910465598106384 0.5 0.0
0.20895539224147797 0.5 0.0
0.2388061285018921 0.5 0.0
0.2686568796634674 0.5 0.0
0.29850760102272034 0.5 0.0
0.32835835218429565 0.5 0.0
0.35820910334587097 0.5 0.0
0.3880598247051239 0.5 0.0
0.4179105758666992 0.5 0.0
0.44776129722595215 0.5 0.0
0.47761204838752747 0.5 0.0
0.5074627995491028 0.5 0.0
0.5373135209083557 0.5 0.0
0.5671642422676086 0.5 0.0
0.5970150232315063 0.5 0.0
0.6268657445907593 0.5 0.0
0.6567164659500122 0.5 0.0
0.6865672469139099 0.5 0.0
0.7164179682731628 0.5 0.0
0.7462686896324158 0.5 0.0
0.7761194705963135 0.5 0.0
0.8059701919555664 0.5 0.0
0.8358209133148193 0.5 0.0
0.865671694278717 0.5 0.0
0.89552241563797 0.5 0.0
0.9253731369972229 0.5 0.0
0.9552239179611206 0.5 0.0
0.9850746393203735 0.5 0.0
1.0149253606796265 0.5 0.0
1.0447760820388794 0.5 0.0
1.0746268033981323 0.5 0.0
1.1044776439666748 0.5 0.0
1.1343283653259277 0.5 0.0
1.1641790866851807 0.5 0.0
1.1940298080444336 0.5 0.0
1.2238805294036865 0.5 0.0
1.2537312507629395 0.5 0.0
1.2835819721221924 0.5 0.0
1.3134328126907349 0.5 0.0
1.3432835340499878 0.5 0.0
1.3731342554092407 0.5 0.0
1.4029849767684937 0.5 0.0
1.4328356981277466 0.5 0.0
1.4626864194869995 0.5 0.0
1.492537260055542 0.5 0.0
1.522387981414795 0.5 0.0
1.5522387027740479 0.5 0.0
1.5820894241333008 0.5 0.0
1.6119401454925537 0.5 0.0
1.6417908668518066 0.5 0.0
1.6716417074203491 0.5 0.0
1.701492428779602 0.5 0.0
1.731343150138855 0.5 0.0
1.761193871498108 0.5 0.0
1.7910445928573608 0.5 0.0
1.8208953142166138 0.5 0.0
1.8507460355758667 0.5 0.0
1.8805968761444092 0.5 0.0
1.910447597503662 0.5 0.0
1.940298318862915 0.5 0.0
1.970149040222168 0.5 0.0
1.7358819246292114 0.7499510645866394 0.0
0.2656642198562622 0.7486277222633362 0.0
0.49981194734573364 0.737183690071106 0.0
0.74151611328125 0.7359843254089355 0.0
0.9774143695831299 0.7371892929077148 0.0
1.201690912246704 0.7367381453514099 0.0
1.447761058807373 0.7383390665054321 0.0
1.8591958284378052 0.6421071290969849 0.0
0.14080412685871124 0.6421071290969849 0.0
1.588537573814392 0.6783608794212341 0.0
0.2553686201572418 0.6221352219581604 0.0
1.7466964721679688 0.6278358101844788 0.0
0.38199201226234436 0.6273008584976196 0.0
0.5013589859008789 0.6272794008255005 0.0
0.6207823157310486 0.6272526383399963 0.0
0.7401852607727051 0.627252459526062 0.0
0.8595882654190063 0.6272523999214172 0.0
0.9701492786407471 0.6212864518165588 0.0
1.0807102918624878 0.6272523999214172 0.0
1.2001131772994995 0.6272523999214172 0.0
1.3195161819458008 0.6272523999214172 0.0
1.4488563537597656 0.6310953497886658 0.0
1.9247323274612427 0.5706554055213928 0.0
0.07526770234107971 0.5706554055213928 0.0
1.5377081632614136 0.5910930037498474 0.0
1.6566967964172363 0.5934624075889587 0.0
1.8074009418487549 0.5708622932434082 0.0
0.1940300166606903 0.5737577676773071 0.0
1.0286364555358887 0.5665481686592102 0.0
1.14803946018219 0.5665481686592102 0.0
0.9116620421409607 0.5665481686592102 0.0
1.2674424648284912 0.5665481686592102 0.0
0.7922590970993042 0.5665481686592102 0.0
0.6728560328483582 0.5665482878684998 0.0
0.5534531474113464 0.5665481686592102 0.0
1.3892061710357666 0.5727682709693909 0.0
0.43402159214019775 0.5665869116783142 0.0
0.3146642744541168 0.5667200088500977 0.0
1.8656742572784424 0.5607567429542542 0.0
0.1343258023262024 0.5607567429542542 0.0
1.5970147848129272 0.5642029047012329 0.0
1.8783670663833618 0.7786769866943359 0.0
0.12163297086954117 0.7786769866943359 0.0
1.7164177894592285 0.562579333782196 0.0
1.4776118993759155 0.5620538592338562 0.0
1.5857784748077393 0.867691159248352 0.0
0.25373148918151855 0.5588531494140625 0.0
0.9701492786407471 0.5582930445671082 0.0
1.0895521640777588 0.5582930445671082 0.0
0.8507462739944458 0.5582930445671082 0.0
1.20895516872406 0.5582930445671082 0.0
0.7313433289527893 0.5582930445671082 0.0
1.3283581733703613 0.5582930445671082 0.0
0.6119403839111328 0.5582930445671082 0.0
0.49253740906715393 0.5582930445671082 0.0
0.37313446402549744 0.5582956075668335 0.0
0.36864349246025085 0.7376502752304077 0.0
0.602456271648407 0.7355343103408813 0.0
0.8441241383552551 0.7366551756858826 0.0
1.3355978727340698 0.7366551160812378 0.0
1.0895521640777588 0.7378703355789185 0.0
0.07051979005336761 0.6486480832099915 0.0
1.9294801950454712 0.6486480832099915 0.0
1.5086064338684082 0.6743985414505005 0.0
1.6785967350006104 0.6649783849716187 0.0
1.9543375968933105 0.5452249050140381 0.0
0.04566239193081856 0.5452249050140381 0.0
1.6567095518112183 0.5496091842651367 0.0
1.53738272190094 0.5491842031478882 0.0
0.91306072473526 0.8965699672698975 0.0
1.7782752513885498 0.5446287989616394 0.0
1.4163299798965454 0.5447981357574463 0.0
0.4287482798099518 0.8945969939231873 0.0
1.2610714435577393 0.8950135707855225 0.0
0.4313095211982727 0.6832783222198486 0.0
0.31561949849128723 0.6858259439468384 0.0
1.029850721359253 0.6781684160232544 0.0
0.9082015752792358 0.6848641633987427 0.0
1.1492537260055542 0.6781684160232544 0.0
0.7886138558387756 0.678956151008606 0.0
1.2709345817565918 0.684736430644989 0.0
0.6685023903846741 0.6868807673454285 0.0
1.4007169008255005 0.6702371835708618 0.0
0.5483440160751343 0.6792802214622498 0.0
0.19808045029640198 0.6887137293815613 0.0
1.797759771347046 0.6853783130645752 0.0
0.6811949610710144 0.8757594227790833 0.0
1.0189321041107178 0.8474968671798706 0.0
0.7922950983047485 0.8446238040924072 0.0
1.3765455484390259 0.8590760827064514 0.0
1.1571698188781738 0.8478953838348389 0.0
1.8954496383666992 0.5359624624252319 0.0
1.8360060453414917 0.5359931588172913 0.0
0.10455036163330078 0.5359624624252319 0.0
0.16417928040027618 0.5353734493255615 0.0
0.5530290007591248 0.8422092199325562 0.0
0.2832632064819336 0.5367912650108337 0.0
0.22469767928123474 0.5394234657287598 0.0
0.9405550956726074 0.5357381105422974 0.0
0.9997434020042419 0.5357381105422974 0.0
1.0600273609161377 0.5365630984306335 0.0
1.1191463470458984 0.5357381105422974 0.0
0.8802711367607117 0.5365630984306335 0.0
0.8211521506309509 0.5357381105422974 0.0
1.2385493516921997 0.5357381105422974 0.0
1.179430365562439 0.5365630984306335 0.0
0.7608681321144104 0.5365630984306335 0.0
0.7017492055892944 0.5357381105422974 0.0
1.2988333702087402 0.5365630984306335 0.0
1.357560396194458 0.5390686392784119 0.0
0.5823462605476379 0.5357381105422974 0.0
0.6414651870727539 0.5365630984306335 0.0
0.5220622420310974 0.5365630984306335 0.0
0.4629422128200531 0.535739541053772 0.0
0.3435409665107727 0.5357455015182495 0.0
0.4026572108268738 0.5365669131278992 0.0
0.21006634831428528 0.8590372204780579 0.0
1.7943172454833984 0.8627070188522339 0.0
0.06134982034564018 0.7191494703292847 0.0
1.938650131225586 0.7191494703292847 0.0
1.634666085243225 0.7584379315376282 0.0
0.3355695903301239 0.8387951850891113 0.0
1.537941336631775 0.7633647918701172 0.0
1.9670078754425049 0.574067234992981 0.0
0.032992132008075714 0.574067234992981 0.0
1.6862140893936157 0.5314788222312927 0.0
1.6272135972976685 0.5317342281341553 0.0
1.5077245235443115 0.5309156775474548 0.0
1.5668202638626099 0.5316618084907532 0.0
1.7466963529586792 0.5298213958740234 0.0
1.4473658800125122 0.5297333002090454 0.0
1.804386019706726 0.5275400876998901 0.0
1.9283779859542847 0.5282225012779236 0.0
1.8656879663467407 0.5267112255096436 0.0
0.13432854413986206 0.5271331071853638 0.0
0.07162196189165115 0.5282225012779236 0.0
0.25373148918151855 0.527070939540863 0.0
0.19419340789318085 0.5297109484672546 0.0
0.31349387764930725 0.5272363424301147 0.0
0.37313446402549744 0.5270199179649353 0.0
0.4329495429992676 0.5274069309234619 0.0
0.49253740906715393 0.5270196795463562 0.0
0.5523557066917419 0.5274024605751038 0.0
1.3898069858551025 0.5277745127677917 0.0
1.3283581733703613 0.5270196795463562 0.0
0.6119403839111328 0.5270196795463562 0.0
1.2685397863388062 0.5274024605751038 0.0
0.6717586517333984 0.5274024605751038 0.0
0.7313433289527893 0.5270196795463562 0.0
1.20895516872406 0.5270196795463562 0.0
0.7911616563796997 0.5274024605751038 0.0
0.8507462739944458 0.5270196795463562 0.0
1.1491369009017944 0.5274024605751038 0.0
1.0895521640777588 0.5270196795463562 0.0
0.9105646014213562 0.5274024605751038 0.0
0.9701492786407471 0.5270196795463562 0.0
1.0297338962554932 0.5274024605751038 0.0
1.4776118993759155 0.5259945392608643 0.0
1.597015619277954 0.5255197882652283 0.0
1.7164177894592285 0.525999903678894 0.0
1.6834615468978882 0.8477573990821838 0.0
1.5822722911834717 0.6086509227752686 0.0
0.20459823310375214 0.6270732283592224 0.0
1.8037469387054443 0.6209055185317993 0.0
0.09990309923887253 0.8589919805526733 0.0
1.9000968933105469 0.8589919805526733 0.0
1.75603187084198 0.5789161324501038 0.0
0.10896337777376175 0.5982794761657715 0.0
1.8910366296768188 0.5982794761657715 0.0
1.4950518608093262 0.605266273021698 0.0
1.7049394845962524 0.6007562279701233 0.0
1.4387125968933105 0.5775743722915649 0.0
1.489302158355713 0.851039469242096 0.0
0.15732239186763763 0.5961292386054993 0.0
1.8436260223388672 0.5944437384605408 0.0
0.4399496018886566 0.6259797215461731 0.0
1.022565245628357 0.6257523894309998 0.0
[...]
POINT_DATA 348
SCALARS Psi double
LOOKUP_TABLE default
1.0878984745108713
1.0
1.0
1.076668469264048
1.0877880062357947
1.0875451104774927
1.0891468084486005
1.0938728055814197
1.1033510760314538
1.1418217491804006
1.0
1.0
1.0
1.0
1.0
1.0
1.0
1.0
1.0
1.0
1.0
1.1342685463965483
1.0942751242448308
1.0844750354887338
1.0798819113789824
1.0777145538054718
1.0768590541993817
1.0879812890951965
1.0867118737255475
1.0848223047328203
1.0824207999672728
1.0794798105922512
1.0760237479609809
1.0721218737410745
1.0678672938857965
1.0633834607963728
1.0587584764331457
1.0540920620856453
1.0494630469051403
1.0449565223534734
1.0406243934126522
1.036494424854219
1.0325996193082079
1.0289672844907054
1.0256109400247473
1.0225183845365147
1.0196944968524344
1.0171381907010495
1.0148448620670567
1.0127905844452794
1.010968779217759
1.0093691715952229
1.0079826246464962
1.006788756298402
1.0057803760105413
1.0049494028901411
1.0042890028319018
1.003786664677729
1.0034382993551014
1.0032411996019892
1.00319344429983
1.003291448213952
1.0035346311726012
1.00392857427787
1.0044762170928228
1.0051807819312775
1.006046235778288
1.007085952938099
1.0083062724944163
1.0097144700320002
1.0113162605545387
1.0131345528721776
1.0151740580594273
1.0174309700730846
1.0199346785980141
1.022676493111233
1.0256555035053294
1.0288722148621123
1.0323240682688306
1.035990389201081
1.0398395378077103
1.043833844040927
1.047925536358087
1.0520543032681537
1.0561439083066788
1.0601072580021211
1.0638381740284413
1.067240212783886
1.0702047587186279
1.072629192744938
1.074475647694146
1.075749127465297
1.0764613444432394
1.0467867111150868
1.0518854975046676
1.020119954579176
1.0058086488585696
1.0016730890933991
1.0036439487321642
1.0139159671526587
1.0733682570915843
1.0821127466448068
1.0311074484755134
1.063534311000891
1.056689605799537
1.0425530036077455
1.026824153523927
1.015624362411674
1.008449778830048
1.0043633587794512
1.0028457868029181
1.003042130370243
1.005401094431215
1.01029885191574
1.0190457071603594
1.0762815970282031
1.0856765450507535
1.0292513434489026
1.04452951170971
1.0659083918952934
1.0740341916140996
1.0030690600479233
1.0045811566575418
1.0038189305753185
1.0086117114551423
1.0070315646547638
1.0132384594654604
1.0232041804646665
1.0157540904189604
1.037486020216176
1.0554784179826184
1.0719808302940694
1.0811616401325779
1.037206961622369
1.07824387947903
1.086358019491831
1.0536728172875318
1.0235734735369257
1.0130768691688758
1.0652546101043683
1.0031970525078218
1.0035798882271905
1.0051657431617351
1.0063427130278022
1.009847796886252
1.0118732770765988
1.0179114426858722
1.0300947466322852
1.046479489262358
1.0356947694594987
1.012354618457773
1.0031387427159733
1.0079927420642338
1.0019375178018566
1.0902638557417637
1.080784317878988
1.0226367967656493
1.0445797931613143
1.0766486529998573
1.0869297742355006
1.04549935641583
1.0301804044335179
1.000432477950277
1.0622233995043167
1.018259312250616
1.0105238643760006
1.0014801910983582
1.032130051853614
1.04940264918534
1.0022866924489526
1.002832583270333
1.0035487593567467
1.0056184817378389
1.0068375194869923
1.0105844967054685
1.014016969359306
1.0195846246377387
1.0716959174727938
1.063540204146024
1.003369088879857
1.0005515289349136
1.0019091530161268
1.0044737988363466
1.001177079489424
1.0738826786613893
1.0689326686940805
1.083705853215536
1.077857778871678
1.0080518454172123
1.0609556648123708
1.0698224662119329
1.0035449095884654
1.0031568981489054
1.0033514356059654
1.0041283491959787
1.0045480023945412
1.0061844092267835
1.0075849559633512
1.0055370178200724
1.008572133345464
1.0117220719127193
1.0104033157427577
1.0139270178481594
1.0208731770671446
1.0158334216655625
1.027074305063691
1.03425217324546
1.0515054292072308
1.0425620823735273
1.0395567065626632
1.0362112339426972
1.0980435920072933
1.088474766002394
1.0302226293739267
1.026617748449376
1.0193764487969328
1.0777981806315362
1.0869960836227097
1.049814493476741
1.041708105070311
1.0271153359291911
1.0339262736423176
1.0581499446500044
1.0211277924052837
1.0654241818264125
1.075478572056759
1.0715896555330795
1.0810291667619467
1.0859076136234933
1.0655604214125707
1.0740717861718234
1.0562842958659597
1.0470323712926548
1.0383626599324915
1.0306044752331733
1.0238980839390064
1.0163204858357562
1.0121235364573482
1.018279258727159
1.0089275204013792
1.0137006779014441
1.0100775781583107
1.0065003903201053
1.007310283268463
1.0053049710920021
1.0047733073988334
1.003684305542835
1.0039874088849772
1.0032948803368877
1.0031996899669424
1.0240373576031836
1.037782711169156
1.0540276656085799
1.024732127928081
1.0340237284937435
1.0720977954122672
1.0654174776753877
1.076679888504047
1.0694555700128514
1.0590427058754952
1.0841870038637604
1.0751055971332575
1.024234064405657
1.051239823884618
1.0196470454410924
1.009131994059696
1.0790605294320386
1.07040324016529
1.0344440063598446
1.002701771754026
1.0033116066962153
1.003983336437434
1.0061442472695077
1.007590352523904
1.0117379897338181
1.0131967722186306
1.020894821997166
1.0530712580177117
1.026904450092516
1.0769456125919903
1.0853521982294532
1.0490327200844929
1.0329780828273996
1.041576912833802
1.0531510677192288
1.0023830257520425
1.0026693188310771
1.0039418911592073
1.0050219755625098
1.0079147626560787
1.00974410586748
1.0144741786346427
1.0255108295671649
1.0411378679728651
1.107972033999552
1.0992860060390122
1.0766662395557538
1.0879553704965421
1.060763065415736
1.002973487057833
1.0032515757702924
1.0031706622686178
1.061220931359235
1.00375270871042
1.0043770222757613
1.0056003462902958
1.0053642799170628
1.006900865384156
1.0083446693486526
1.0107080771417865
1.0101583381116297
1.012799059197311
1.0154620518665514
1.0192794234522828
1.026546538856035
1.0680748969669882
1.032071649934044
1.0420100804028933
1.0488854790321442
1.0174362726794515
1.045787325840098
1.0304818268609561
1.0386471657883312
1.0014570165895047
1.0217583110357757
1.0389659103956672
1.0837777927975578
1.0744046642695608
1.000256912180226
1.0282062276388872
1.069242865841049
1.0781093475451964
1.003940195696576
1.0875215093239505
1.0771331067757661
1.0872136409961812
1.0783251134909504
1.0690638753687736
1.0624278431805279
1.0620060165833805
1.0185975170135089
1.0010538007744845
1.016345308216369
1.0065916817647151
1.0761908357949246
1.0872104888679386
1.052818722283971
1.0469710938936982

SCALARS Omega double
LOOKUP_TABLE default
4.100276591261853
-10.327730795582745
-14.268649563643397
0.13217857053215126
4.49251542643987
-2.683794553466758
-4.473557660756409
3.5422922230141154
1.0314781535295743
20.842645460345125
-8.188675201310073
-0.4094725225626892
-0.8985275657945923
-0.23421396006336034
-0.11369097943377754
-0.030612111988321755
-0.11116901000988247
-0.18643504187853854
-0.6569892804260123
-0.6110339259290966
-6.115745385218701
17.943670584996713
3.5124636782523706
-1.0379081270072987
0.1453482837022667
0.033512257680140135
-0.32203140237586036
2.1113617297349245
1.091836779091091
0.7143021740237704
0.5849518485251234
0.532723942466688
0.5070780229766891
0.4781901953719562
0.4415368870085313
0.3974117806583939
0.3477326856452157
0.2962463958311479
0.2449789204500702
0.19618313374195284
0.15080900321857962
0.10952048259547723
0.07261347389021156
0.040333454008344115
0.012569703467336497
-0.011155350811339221
-0.031081819194709915
-0.04752459002542291
-0.06081139722148973
-0.07154132441722914
-0.08001355190627668
-0.08658310638033521
-0.09151389708232754
-0.09520530070785123
-0.09785149256521304
-0.09967300242721455
-0.10081313960093868
-0.10146383228712255
-0.10170958587675104
-0.10162686793191143
-0.10124796009984598
-0.10059290866195783
-0.09964829193128794
-0.09834303087149873
-0.09661227935122006
-0.09434272320112318
-0.09142625781690406
-0.08763222599422846
-0.08279843041638929
-0.07668844460760961
-0.06909527005514006
-0.059547316741335586
-0.04780290273769743
-0.03366497341209898
-0.01647275127680002
0.003910499511985958
0.027743082065712216
0.05530912086262105
0.08677693367128948
0.12203690518037807
0.16057613158853382
0.2016896052426767
0.24401350595385177
0.2859350890191708
0.3247869461323041
0.35760137020291993
0.3795471550276082
0.38524800500441436
0.37065562203582636
0.33000239091978856
0.261034102991697
0.16510919318379733
0.06635078650612712
0.3151066786413305
0.33936277918325447
-0.11646412744552434
-0.13091185651985054
-0.1057054422589991
-0.11366535224278487
-0.12385496954363363
0.7178328076167609
0.8448250620989888
0.046919300195619025
0.46988162824042196
0.4081247472395203
0.16694960771534606
0.0028975474727747186
-0.07395212587077674
-0.10007944090781261
-0.10519634367191512
-0.10385548530901069
-0.10230780698105686
-0.09843631696956509
-0.08460653242387009
-0.04068562426297271
0.30650981073165634
0.09488991767620639
0.05186250868136062
0.21730105448612066
0.4399174101580304
0.5280590909272007
-0.10168073662634657
-0.09715105193934866
-0.10234065469195608
-0.08372762043367342
-0.09659159837221055
-0.07320444334578446
-0.011171932260397064
-0.04893133593961983
0.11627850692255269
0.32074728084686865
0.409384430528305
0.49085197050044094
0.13352109556840583
2.249060119983484
2.5274009285983166
0.3156010862799305
0.00724417708242447
-0.3187831356844847
0.434289483945221
-0.10231092542720063
-0.09981692730858878
-0.10036161114633556
-0.09157790089317379
-0.08711259206982211
-0.06873062082258748
-0.04655457231184388
0.0463340593081857
0.21351020299357648
0.04064205043242415
-0.14344316629420173
-0.1168035577030727
-0.12342029428443557
-0.10619346677319354
0.9676272327855551
0.5747828402108849
-0.031028869383910695
0.2379945714562818
0.14049951449180875
0.4503874091377601
0.2219093739942327
0.06523625382718079
-0.09857906695907089
0.3875232242987392
-0.030069433997005915
-0.41888398836925134
-0.15081365821873338
0.03255470406278881
0.27537492143083886
-0.104616162854478
-0.1080751843861996
-0.10488149091608377
-0.11268902220355058
-0.10497213938940893
-0.11310599791323425
-0.08190653096868705
-0.07324263382249091
0.8361155033184847
0.6923071888231861
-0.20088340190879567
-0.0979626463801795
-0.14249513331595653
-0.20891314030137012
-0.1146443079282556
0.3216035002861474
0.39908267507581985
0.5432661527710909
0.5181516061197485
-0.30164007062080683
0.37625886719985374
0.46768784743455116
-0.1018840753739097
-0.1016707026734689
-0.1003842099929209
-0.09788439930635529
-0.10072930233251218
-0.09731626819767453
-0.08620622763711708
-0.09350530249077169
-0.0902327647529732
-0.07756313095697055
-0.07426981111270421
-0.05627397456485509
-0.024308275004952182
-0.05649859139575871
0.023020098631557313
0.08697762329129162
0.2689062160434099
0.1706292237947476
-0.6191909296488066
-0.5147470842815246
2.329445225062594
1.9777754326399342
-0.011509735424424279
-0.23816940717317966
-0.12062838994770075
0.16690677660275927
-1.0217322042409134
0.26552628048966853
0.18017280066523259
0.0392061475124078
0.10148348554155197
0.34662514708752096
-0.008566668559564158
0.3920916326545568
0.21860644190759285
0.3652351841811409
0.5338230401938217
0.7124939981062077
0.42341547293908444
0.49727144015958474
0.32227161902540435
0.2188035715925616
0.12752218762621387
0.05381235992130914
-0.001660651427942535
-0.041427649962421834
-0.06554031063370469
-0.04122241997952295
-0.08056138180368752
-0.06760899251157214
-0.08431586942020376
-0.09007820771569303
-0.09403104409129605
-0.09919240994518119
-0.09582606749202435
-0.09921886181420786
-0.10139610384867644
-0.10184407497333774
-0.1010833221378947
0.013962251223551755
0.1397994393611242
0.3076025264927052
-0.26389127333894224
0.09725913358005388
0.6218180596237012
0.5337798652319476
2.9039953776964036
2.155648207125447
0.3856460208358189
0.4315959594738357
0.47340738227496104
0.005161758281197751
0.30623706264789036
-0.024410384520352248
-0.28101069616187724
0.5921227818415647
0.5085895250705832
0.0755262933884451
-0.10322296824996047
-0.10472893858335733
-0.10082993761984652
-0.10385718257091467
-0.09299651502170943
-0.08998797036043892
-0.07147385118247547
-0.0418288385868978
0.31016150197587
0.03413599067929917
1.2523254612417765
1.4785748227237463
0.2651621004867492
0.09036934060322473
0.18033095489123716
0.41361737901059736
-0.10537196643826198
-0.10433475487186439
-0.11016426553454285
-0.10444550596666816
-0.11200115963727289
-0.09772746920827052
-0.09915262578205866
-0.02849004306616635
0.14423106345461267
5.598342302546315
5.403331021562028
-0.012855761251086171
2.097569030630727
0.48885287030941726
-0.10265928898980693
-0.10312383560758016
-0.10135194534553349
0.4019968997568026
-0.09983805469319508
-0.10270297574946227
-0.10100566817622021
-0.09587048341647673
-0.09124247855046051
-0.09487819237784581
-0.08672286921260497
-0.07944071552117879
-0.06713690826145421
-0.06531830795774847
-0.04228617802162701
0.010999425736818702
0.48867830820361086
0.060394918711332714
0.16287202213242766
0.24370900202059573
-0.06902117020196437
0.22262509040982842
0.06938332833750126
0.14914127627702878
-0.10985028250654529
-0.16829937856325147
0.15224910617881512
0.38217091771659595
0.37518986528690595
-0.08900149661648091
0.03241088196138802
0.44000536705770804
0.532189609347628
-0.13409298101286965
0.46689768361985073
0.011219789318495148
-0.5101373601925143
0.34085160640188367
1.0203185730067172
0.9271598517738554
0.37332386675015145
-0.02622250138041491
-0.17256911057830257
-0.052967203855928305
-0.1661729547249708
0.11856080322842417
1.2482118261592976
0.5729328675058807
-1.2167721126704467

SCALARS Vx_analytic double
LOOKUP_TABLE default
4.100276591261853
-10.327730795582745
-14.268649563643397
0.13210637960783717
4.49251542643987
-2.683794553466758
-4.473557660756409
3.5422922230141154
1.0314781535295743
20.842645460345125
-8.188675201310073
-0.4094725225626892
-0.8985275657945923
-0.23421396006336034
-0.11369097943377754
-0.030612111988321755
-0.11116901000988247
-0.18643504187853854
-0.6569892804260121
-0.6110339259290966
-6.115745385218701
17.943670584996713
3.5132646959069724
-1.0157705221658724
0.14755553992914663
0.03451969898195224
-0.32007619898704304
2.1113617297349245
1.091836779091091
0.7143021740237704
0.5849518485251234
0.532723942466688
0.5070780229766891
0.4781901953719562
0.4415368870085313
0.3974117806583939
0.3477326856452157
0.2962463958311479
0.2449789204500702
0.19618313374195284
0.15080900321857962
0.10952048259547723
0.07261347389021156
0.040333454008344115
0.012569703467336497
-0.011155350811339221
-0.031081819194709915
-0.04752459002542291
-0.06081139722148973
-0.07154132441722914
-0.08001355190627668
-0.08658310638033521
-0.09151389708232754
-0.09520530070785123
-0.09785149256521304
-0.09967300242721455
-0.10081313960093868
-0.10146383228712255
-0.10170958587675104
-0.10162686793191143
-0.1012478268138252
-0.10059294121530066
-0.0996484542371552
-0.09834350110682444
-0.09661312054563236
-0.09434451797016029
-0.09142861798417774
-0.08763596974775763
-0.0828033421313369
-0.07669661317336908
-0.06910496076160093
-0.05956144796444438
-0.04782298702802748
-0.033672459923241506
-0.01648539101716155
0.0038884099075237218
0.027721518745486434
0.055297474439387435
0.08676828019044541
0.12202034414009748
0.16057453078490602
0.20170954663006527
0.2440664346761977
0.286001583949943
0.3248965448189834
0.3577128694841542
0.37972785702266787
0.38560071598670564
0.3710283161355721
0.3304074131614951
0.26136830548802986
0.16535185065102348
0.06630766753406979
0.30728902815255116
0.33717061444802987
-0.11573714651141044
-0.13079943932409901
-0.10570535494154357
-0.11372780216921605
-0.1245635302211964
0.7269997388018644
0.8347617253775943
0.046007270585880285
0.46799101158107126
0.41050734702025066
0.16692146304951377
0.003136669122857953
-0.07378379801677912
-0.100015673373284
-0.1051812717009853
-0.10385296422150692
-0.10231052743136042
-0.0984683211189907
-0.08473012802615786
-0.04101671764775047
0.30863173667681787
0.1016415680701106
0.05153787138019043
0.2175443435145731
0.44228040800512386
0.5270414712566612
-0.101680365780722
-0.0971593225220368
-0.10233728386485218
-0.08377000609613898
-0.09657556175879017
-0.07315791358840372
-0.011102327203776756
-0.049075078888594206
0.11625277794608153
0.3202582300221576
0.411595958708554
0.4921555330789436
0.13340677203380155
2.2562437465559153
2.4658842147510103
0.31620104490401285
0.007045942100217032
-0.3199528328500169
0.43353010347717214
-0.10230954690573184
-0.09981883950950186
-0.10035371727738307
-0.09159326910801499
-0.08708221475080997
-0.06878611481531823
-0.04648330289270583
0.04641118732657418
0.21338885480245606
0.041510521725348255
-0.14299730782591125
-0.11677288618129676
-0.12376119504061153
-0.1062044597835595
0.892616021453574
0.5831067610117535
-0.031782754556171626
0.23793720677390406
0.14188665749972454
0.459226106014415
0.22203848115363314
0.06507796728734944
-0.09857956846252137
0.38847507781291624
-0.03015694200180601
-0.41751390910661595
-0.15089691711178096
0.032833075016754795
0.2746372744361538
-0.10461649251905583
-0.1080643459053822
-0.10490610154381366
-0.11263371869209154
-0.10508948324884694
-0.11291175021584596
-0.08229300598568956
-0.07287632455165834
0.8282370826180772
0.697911999085899
-0.20066822473289578
-0.09797116736120823
-0.14243482985685973
-0.20985491985150692
-0.11468426010015871
0.32291998610158545
0.40046616042991073
0.5455847678696844
0.51820874275165
-0.3007930968055702
0.3759623337554574
0.4672919894835903
-0.10188332962588666
-0.10167020648763123
-0.10038502810545533
-0.0978882377785034
-0.1007276471599919
-0.0973125364307065
-0.0862290147529466
-0.09351735476426618
-0.0902264099242797
-0.0775527550709538
-0.07432039361374107
-0.05635099692787436
-0.024297350706303806
-0.0564879188691084
0.023012124561745523
0.08694559833164933
0.2687318305194519
0.17053225445058576
-0.6002055556818511
-0.5404004019789443
2.3324891609700393
1.995213323693763
-0.014257358323907222
-0.23526584150906557
-0.12196078561585073
0.16889580912516336
-1.0064285289271482
0.2657657159359687
0.1801371871898237
0.03905086628377746
0.1013556428685127
0.34736219768932775
-0.008684319034622537
0.3932823964376974
0.2197150068583106
0.36633678591796326
0.5347506766422303
0.7167242441006049
0.4231117938533895
0.49705399019486307
0.3221079647094316
0.218751783521338
0.12751921412861872
0.05384393241663745
-0.0016322889311112916
-0.04151191106806326
-0.06558852421213335
-0.04119317802671167
-0.08058918542223632
-0.06759113212189273
-0.08430334659936986
-0.09009150093411436
-0.09402489114127102
-0.09918920842588709
-0.09583184497103771
-0.09922064529042397
-0.10139490882644595
-0.1018436093727126
-0.1010834146770677
0.013839357293152282
0.13970756597059222
0.3079784831869836
-0.26982869715942004
0.09687450559232029
0.6181302600821481
0.5377275131962836
2.803641245144357
1.988321001262088
0.38716987927819857
0.4280201239054606
0.4775215943201315
0.004780603145560343
0.3069585323845203
-0.02464960105142713
-0.2824246631215653
0.589189300500551
0.5124021152467558
0.0756995234191646
-0.1032224597290772
-0.10472312664085122
-0.10084273143874978
-0.10382419453246566
-0.09306743132831152
-0.08988417065583285
-0.0716621427566771
-0.041609082381768296
0.30944238273065666
0.033955124342349645
1.265000153500492
1.4602339632357104
0.2655939522977252
0.09019050089442807
0.18038623612411436
0.4148559104748731
-0.10536896189364933
-0.10433929963897157
-0.11013665838986551
-0.10448760259209776
-0.11189194681586354
-0.09790551146195103
-0.09883423292656748
-0.028031204848513666
0.1441547258414735
5.320999423488449
5.2091136206348105
-0.012093327415267781
2.094004461021038
0.4859303617023778
-0.1026578207161321
-0.10312143379522984
-0.10135356082815108
0.4010911439117832
-0.09984342114981348
-0.10269515291496747
-0.10099102564557827
-0.09589104191481383
-0.09127527551281772
-0.09484443692560406
-0.08667060459471297
-0.07952305215429888
-0.06724860988572935
-0.06522696117064145
-0.04217311554195893
0.011130154740689239
0.4872496263293464
0.060495842488341875
0.1628178053585067
0.24343739608577092
-0.06948058650789266
0.2226634356001611
0.06925833800575586