# vtk DataFile Version 1.0
2D Simulation C++
ASCII
DATASET UNSTRUCTURED_GRID
FIELD FieldData 1
NODES 1 2 int
348 601

POINTS 348 double
0.0 0.5 0.0
0.0 1.0 0.0
2.0 1.0 0.0
2.0 0.5 0.0
0.0 0.528801679611206 0.0
0.0 0.564507782459259 0.0
0.0 0.6110168099403381 0.0
0.0 0.6721802353858948 0.0
0.0 0.7528436183929443 0.0
0.0 0.8593378663063049 0.0
0.16666941344738007 1.0 0.0
0.3333356976509094 1.0 0.0
0.5000020265579224 1.0 0.0
0.6666678786277771 1.0 0.0
0.8333337306976318 1.0 0.0
1.0 1.0 0.0
1.1666662693023682 1.0 0.0
1.3333321809768677 1.0 0.0
1.4999979734420776 1.0 0.0
1.6666642427444458 1.0 0.0
1.8333306312561035 1.0 0.0
2.0 0.8593378663063049 0.0
2.0 0.7528436183929443 0.0
2.0 0.6721802353858948 0.0
2.0 0.6110168099403381 0.0
2.0 0.564507782459259 0.0
2.0 0.528801679611206 0.0
0.029850948601961136 0.5 0.0
0.05970168858766556 0.5 0.0
0.08955242484807968 0.5 0.0
0.1194031685590744 0.5 0.0
0.14925390481948853 0.5 0.0
0.17910465598106384 0.5 0.0
0.20895539224147797 0.5 0.0
0.2388061285018921 0.5 0.0
0.2686568796634674 0.5 0.0
0.29850760102272034 0.5 0.0
0.32835835218429565 0.5 0.0
0.35820910334587097 0.5 0.0
0.3880598247051239 0.5 0.0
0.4179105758666992 0.5 0.0
0.44776129722595215 0.5 0.0
0.47761204838752747 0.5 0.0
0.5074627995491028 0.5 0.0
0.5373135209083557 0.5 0.0
0.5671642422676086 0.5 0.0
0.5970150232315063 0.5 0.0
0.6268657445907593 0.5 0.0
0.6567164659500122 0.5 0.0
0.6865672469139099 0.5 0.0
0.7164179682731628 0.5 0.0
0.7462686896324158 0.5 0.0
0.7761194705963135 0.5 0.0
0.8059701919555664 0.5 0.0
0.8358209133148193 0.5 0.0
0.865671694278717 0.5 0.0
0.89552241563797 0.5 0.0
0.9253731369972229 0.5 0.0
0.9552239179611206 0.5 0.0
0.9850746393203735 0.5 0.0
1.0149253606796265 0.5 0.0
1.0447760820388794 0.5 0.0
1.0746268033981323 0.5 0.0
1.1044776439666748 0.5 0.0
1.1343283653259277 0.5 0.0
1.1641790866851807 0.5 0.0
1.1940298080444336 0.5 0.0
1.2238805294036865 0.5 0.0
1.2537312507629395 0.5 0.0
1.2835819721221924 0.5 0.0
1.3134328126907349 0.5 0.0
1.3432835340499878 0.5 0.0
1.3731342554092407 0.5 0.0
1.4029849767684937 0.5 0.0
1.4328356981277466 0.5 0.0
1.4626864194869995 0.5 0.0
1.492537260055542 0.5 0.0
1.522387981414795 0.5 0.0
1.5522387027740479 0.5 0.0
1.5820894241333008 0.5 0.0
1.6119401454925537 0.5 0.0
1.6417908668518066 0.5 0.0
1.6716417074203491 0.5 0.0
1.701492428779602 0.5 0.0
1.731343150138855 0.5 0.0
1.761193871498108 0.5 0.0
1.7910445928573608 0.5 0.0
1.8208953142166138 0.5 0.0
1.8507460355758667 0.5 0.0
1.8805968761444092 0.5 0.0
1.910447597503662 0.5 0.0
1.940298318862915 0.5 0.0
1.970149040222168 0.5 0.0
1.7358819246292114 0.7499510645866394 0.0
0.2656642198562622 0.7486277222633362 0.0
0.49981194734573364 0.737183690071106 0.0
0.74151611328125 0.7359843254089355 0.0
0.9774143695831299 0.7371892929077148 0.0
1.201690912246704 0.7367381453514099 0.0
1.447761058807373 0.7383390665054321 0.0
1.8591958284378052 0.6421071290969849 0.0
0.14080412685871124 0.6421071290969849 0.0
1.588537573814392 0.6783608794212341 0.0
0.2553686201572418 0.6221352219581604 0.0
1.7466964721679688 0.6278358101844788 0.0
0.38199201226234436 0.6273008584976196 0.0
0.5013589859008789 0.6272794008255005 0.0
0.6207823157310486 0.6272526383399963 0.0
0.7401852607727051 0.627252459526062 0.0
0.8595882654190063 0.6272523999214172 0.0
0.9701492786407471 0.6212864518165588 0.0
1.0807102918624878 0.6272523999214172 0.0
1.2001131772994995 0.6272523999214172 0.0
1.3195161819458008 0.6272523999214172 0.0
1.4488563537597656 0.6310953497886658 0.0
1.9247323274612427 0.5706554055213928 0.0
0.07526770234107971 0.5706554055213928 0.0
1.5377081632614136 0.5910930037498474 0.0
1.6566967964172363 0.5934624075889587 0.0
1.8074009418487549 0.5708622932434082 0.0
0.1940300166606903 0.5737577676773071 0.0
1.0286364555358887 0.5665481686592102 0.0
1.14803946018219 0.5665481686592102 0.0
0.9116620421409607 0.5665481686592102 0.0
1.2674424648284912 0.5665481686592102 0.0
0.7922590970993042 0.5665481686592102 0.0
0.6728560328483582 0.5665482878684998 0.0
0.5534531474113464 0.5665481686592102 0.0
1.3892061710357666 0.5727682709693909 0.0
0.43402159214019775 0.5665869116783142 0.0
0.3146642744541168 0.5667200088500977 0.0
1.8656742572784424 0.5607567429542542 0.0
0.1343258023262024 0.5607567429542542 0.0
1.5970147848129272 0.5642029047012329 0.0
1.8783670663833618 0.7786769866943359 0.0
0.12163297086954117 0.7786769866943359 0.0
1.7164177894592285 0.562579333782196 0.0
1.4776118993759155 0.5620538592338562 0.0
1.5857784748077393 0.867691159248352 0.0
0.25373148918151855 0.5588531494140625 0.0
0.9701492786407471 0.5582930445671082 0.0
1.0895521640777588 0.5582930445671082 0.0
0.8507462739944458 0.5582930445671082 0.0
1.20895516872406 0.5582930445671082 0.0
0.7313433289527893 0.5582930445671082 0.0
1.3283581733703613 0.5582930445671082 0.0
0.6119403839111328 0.5582930445671082 0.0
0.49253740906715393 0.5582930445671082 0.0
0.37313446402549744 0.5582956075668335 0.0
0.36864349246025085 0.7376502752304077 0.0
0.602456271648407 0.7355343103408813 0.0
0.8441241383552551 0.7366551756858826 0.0
1.3355978727340698 0.7366551160812378 0.0
1.0895521640777588 0.7378703355789185 0.0
0.07051979005336761 0.6486480832099915 0.0
1.9294801950454712 0.6486480832099915 0.0
1.5086064338684082 0.6743985414505005 0.0
1.6785967350006104 0.6649783849716187 0.0
1.9543375968933105 0.5452249050140381 0.0
0.04566239193081856 0.5452249050140381 0.0
1.6567095518112183 0.5496091842651367 0.0
1.53738272190094 0.5491842031478882 0.0
0.91306072473526 0.8965699672698975 0.0
1.7782752513885498 0.5446287989616394 0.0
1.4163299798965454 0.5447981357574463 0.0
0.4287482798099518 0.8945969939231873 0.0
1.2610714435577393 0.8950135707855225 0.0
0.4313095211982727 0.6832783222198486 0.0
0.31561949849128723 0.6858259439468384 0.0
1.029850721359253 0.6781684160232544 0.0
0.9082015752792358 0.6848641633987427 0.0
1.1492537260055542 0.6781684160232544 0.0
0.7886138558387756 0.678956151008606 0.0
1.2709345817565918 0.684736430644989 0.0
0.6685023903846741 0.6868807673454285 0.0
1.4007169008255005 0.6702371835708618 0.0
0.5483440160751343 0.6792802214622498 0.0
0.19808045029640198 0.6887137293815613 0.0
1.797759771347046 0.6853783130645752 0.0
0.6811949610710144 0.8757594227790833 0.0
1.0189321041107178 0.8474968671798706 0.0
0.7922950983047485 0.8446238040924072 0.0
1.3765455484390259 0.8590760827064514 0.0
1.1571698188781738 0.8478953838348389 0.0
1.8954496383666992 0.5359624624252319 0.0
1.8360060453414917 0.5359931588172913 0.0
0.10455036163330078 0.5359624624252319 0.0
0.16417928040027618 0.5353734493255615 0.0
0.5530290007591248 0.8422092199325562 0.0
0.2832632064819336 0.5367912650108337 0.0
0.22469767928123474 0.5394234657287598 0.0
0.9405550956726074 0.5357381105422974 0.0
0.9997434020042419 0.5357381105422974 0.0
1.0600273609161377 0.5365630984306335 0.0
1.1191463470458984 0.5357381105422974 0.0
0.8802711367607117 0.5365630984306335 0.0
0.8211521506309509 0.5357381105422974 0.0
1.2385493516921997 0.5357381105422974 0.0
1.179430365562439 0.5365630984306335 0.0
0.7608681321144104 0.5365630984306335 0.0
0.7017492055892944 0.5357381105422974 0.0
1.2988333702087402 0.5365630984306335 0.0
1.357560396194458 0.5390686392784119 0.0
0.5823462605476379 0.5357381105422974 0.0
0.6414651870727539 0.5365630984306335 0.0
0.5220622420310974 0.5365630984306335 0.0
0.4629422128200531 0.535739541053772 0.0
0.3435409665107727 0.5357455015182495 0.0
0.4026572108268738 0.5365669131278992 0.0
0.21006634831428528 0.8590372204780579 0.0
1.7943172454833984 0.8627070188522339 0.0
0.06134982034564018 0.7191494703292847 0.0
1.938650131225586 0.7191494703292847 0.0
1.634666085243225 0.7584379315376282 0.0
0.3355695903301239 0.8387951850891113 0.0
1.537941336631775 0.7633647918701172 0.0
1.9670078754425049 0.574067234992981 0.0
0.032992132008075714 0.574067234992981 0.0
1.6862140893936157 0.5314788222312927 0.0
1.6272135972976685 0.5317342281341553 0.0
1.5077245235443115 0.5309156775474548 0.0
1.5668202638626099 0.5316618084907532 0.0
1.7466963529586792 0.5298213958740234 0.0
1.4473658800125122 0.5297333002090454 0.0
1.804386019706726 0.5275400876998901 0.0
1.9283779859542847 0.5282225012779236 0.0
1.8656879663467407 0.5267112255096436 0.0
0.13432854413986206 0.5271331071853638 0.0
0.07162196189165115 0.5282225012779236 0.0
0.25373148918151855 0.527070939540863 0.0
0.19419340789318085 0.5297109484672546 0.0
0.31349387764930725 0.5272363424301147 0.0
0.37313446402549744 0.5270199179649353 0.0
0.4329495429992676 0.5274069309234619 0.0
0.49253740906715393 0.5270196795463562 0.0
0.5523557066917419 0.5274024605751038 0.0
1.3898069858551025 0.5277745127677917 0.0
1.3283581733703613 0.5270196795463562 0.0
0.6119403839111328 0.5270196795463562 0.0
1.2685397863388062 0.5274024605751038 0.0
0.6717586517333984 0.5274024605751038 0.0
0.7313433289527893 0.5270196795463562 0.0
1.20895516872406 0.5270196795463562 0.0
0.7911616563796997 0.5274024605751038 0.0
0.8507462739944458 0.5270196795463562 0.0
1.1491369009017944 0.5274024605751038 0.0
1.0895521640777588 0.5270196795463562 0.0
0.9105646014213562 0.5274024605751038 0.0
0.9701492786407471 0.5270196795463562 0.0
1.0297338962554932 0.5274024605751038 0.0
1.4776118993759155 0.5259945392608643 0.0
1.597015619277954 0.5255197882652283 0.0
1.7164177894592285 0.525999903678894 0.0
1.6834615468978882 0.8477573990821838 0.0
1.5822722911834717 0.6086509227752686 0.0
0.20459823310375214 0.6270732283592224 0.0
1.8037469387054443 0.6209055185317993 0.0
0.09990309923887253 0.8589919805526733 0.0
1.9000968933105469 0.8589919805526733 0.0
1.75603187084198 0.5789161324501038 0.0
0.10896337777376175 0.5982794761657715 0.0
1.8910366296768188 0.5982794761657715 0.0
1.4950518608093262 0.605266273021698 0.0
1.7049394845962524 0.6007562279701233 0.0
1.4387125968933105 0.5775743722915649 0.0
1.489302158355713 0.851039469242096 0.0
0.15732239186763763 0.5961292386054993 0.0
1.8436260223388672 0.5944437384605408 0.0
0.4399496018886566 0.6259797215461731 0.0
1.022565245628357 0.6257523894309998 0.0
[...]
POINT_DATA 348
SCALARS Psi double
LOOKUP_TABLE default
1.087898474505917
1.0
1.0
1.076668469256643
1.0877880062308731
1.0875451104726939
1.089146808444084
1.0938728055774993
1.1033510760285996
1.141821749179054
1.0
1.0
1.0
1.0
1.0
1.0
1.0
1.0
1.0
1.0
1.0
1.134268546394864
1.0942751242409658
1.0844750354831825
1.0798819113724072
1.077714553798345
1.0768590541920269
1.0879812890902048
1.0867118737203647
1.0848223047272991
1.0824207999612754
1.079479810585636
1.0760237479536159
1.072121873732832
1.067867293876564
1.0633834607860366
1.058758476421606
1.0540920620728171
1.0494630468909538
1.0449565223378598
1.0406243933955626
1.0364944248356223
1.0325996192880906
1.0289672844690552
1.025610940001573
1.0225183845118466
1.0196944968263204
1.0171381906735357
1.0148448620382091
1.0127905844151857
1.0109687791865198
1.009369171562933
1.0079826246132655
1.0067887562643614
1.0057803759758293
1.0049494028548853
1.0042890027962368
1.0037866646418072
1.003438299319075
1.0032411995659938
1.0031934442639974
1.003291448178426
1.0035346311375257
1.003928574243368
1.0044762170590065
1.005180781898268
1.0060462357461983
1.0070859529070182
1.0083062724644174
1.0097144700031613
1.0113162605269255
1.0131345528458284
1.0151740580343651
1.0174309700493585
1.01993467857561
1.0226764930901462
1.025655503485551
1.0288722148436145
1.0323240682515746
1.0359903891850157
1.0398395377927825
1.0438338440270734
1.0479255363452367
1.052054303256227
1.056143908295595
1.0601072579917976
1.063838174018794
1.0672402127748197
1.0702047587100585
1.0726291927367757
1.0744756476863002
1.075749127457688
1.0764613444357798
1.046786711109747
1.0518854974995286
1.020119954567466
1.0058086488405238
1.001673089073229
1.0036439487144644
1.013915967140927
1.0733682570847214
1.082112746639532
1.0311074484642149
1.0635343109924507
1.0566896057905433
1.0425530035947286
1.0268241535057536
1.0156243623884147
1.0084497788026163
1.0043633587493612
1.0028457867716796
1.0030421303403576
1.0054010944039995
1.0102988518924454
1.019045707142143
1.0762815970208377
1.0856765450456385
1.029251343432487
1.0445295116974989
1.0659083918864347
1.074034191606713
1.0030690600136962
1.00458115662548
1.0038189305409797
1.008611711426915
1.0070315646224717
1.0132384594371573
1.0232041804416903
1.015754090395847
1.0374860201990448
1.0554784179709225
1.0719808302860092
1.0811616401264976
1.0372069616075053
1.078243879475634
1.086358019489144
1.053672817276494
1.0235734735172624
1.0130768691662626
1.0652546100949454
1.0031970524730114
1.0035798881935631
1.0051657431279077
1.006342712997285
1.0098477968555455
1.0118732770505436
1.0179114426599616
1.0300947466121213
1.0464794892479863
1.0356947694515566
1.0123546184430496
1.0031387426964236
1.0079927420496269
1.0019375177825471
1.090263855737427
1.0807843178728131
1.0226367967517476
1.0445797931518348
1.076648652992471
1.0869297742305117
1.0454993564028163
1.030180404416081
1.0004324779457143
1.0622233994945978
1.0182593122279562
1.0105238643737664
1.0014801910947342
1.0321300518410066
1.0494026491767925
1.0022866924228695
1.002832583244751
1.0035487593324006
1.0056184817133793
1.0068375194662302
1.0105844966847413
1.0140169693415857
1.0195846246205797
1.0716959174673089
1.0635402041394335
1.0033690888747584
1.0005515289266012
1.0019091530081183
1.0044737988317904
1.0011770794818946
1.0738826786534967
1.0689326686853915
1.083705853209864
1.077857778864788
1.008051845411659
1.0609556648015965
1.0698224662033138
1.0035449095528757
1.0031568981133803
1.0033514355710706
1.004128349162186
1.0045480023594846
1.0061844091927705
1.007584955933143
1.0055370177879093
1.0085721333130855
1.0117220718823772
1.0104033157148795
1.0139270178227915
1.0208731770420252
1.0158334216377214
1.027074305041563
1.0342521732263168
1.0515054291938812
1.0425620823573978
1.0395567065611526
1.0362112339411218
1.0980435920039118
1.088474765997732
1.0302226293673071
1.0266177484462178
1.0193764487887322
1.07779818062444
1.0869960836179249
1.0498144934644722
1.0417081050560824
1.027115335910241
1.033926273625811
1.0581499446394107
1.0211277923836934
1.065424181817106
1.0754785720491205
1.0715896555247877
1.0810291667557017
1.0859076136182264
1.0655604214028793
1.074071786164098
1.056284295853877
1.0470323712778817
1.0383626599147848
1.0306044752124557
1.0238980839152598
1.0163204858116215
1.0121235364305816
1.0182792587005485
1.0089275203721766
1.0137006778721835
1.0100775781267812
1.0065003902887595
1.0073102832350653
1.005304971057274
1.0047733073656615
1.003684305508304
1.0039874088494385
1.0032948803011414
1.003199689931519
1.0240373575828976
1.0377827111537727
1.0540276655971674
1.0247321279254584
1.0340237284794989
1.0720977954053759
1.0654174776673133
1.0766798885028082
1.069455570011367
1.059042705865697
1.0841870038584436
1.0751055971259469
1.0242340643880574
1.0512398238739709
1.0196470454202278
1.0091319940554673
1.0790605294258182
1.0704032401573644
1.0344440063442941
1.0027017717232871
1.00331160666536
1.0039833364085742
1.0061442472404092
1.007590352498456
1.0117379897082415
1.0131967721968616
1.0208948219763396
1.0530712580073491
1.0269044500744005
1.076945612586619
1.0853521982253393
1.0490327200726093
1.0329780828114195
1.0415769128201986
1.053151067711622
1.0023830257252755
1.002669318805727
1.003941891133647
1.005021975539446
1.0079147626328093
1.009744105847924
1.0144741786151454
1.0255108295520214
1.0411378679621524
1.1079720339972983
1.0992860060360776
1.0766662395483475
1.0879553704915903
1.0607630654084097
1.0029734870243021
1.003251575736884
1.003170662235936
1.0612209313493584
1.0037527086784606
1.004377022242904
1.0056003462581145
1.0053642798870395
1.0069008653554916
1.008344669318409
1.010708077112957
1.0101583380856989
1.0127990591731135
1.0154620518406448
1.019279423428306
1.0265465388355401
1.0680748969585927
1.0320716499156894
1.0420100803880297
1.048885479019185
1.017436272664006
1.0457873258268302
1.0304818268431828
1.038647165776139
1.0014570165754395
1.0217583110289152
1.0389659103822053
1.083777792792028
1.0744046642618994
1.0002569121773366
1.0282062276242896
1.0692428658326407
1.078109347538555
1.0039401956853697
1.0875215093190744
1.077133106768485
1.0872136409914461
1.078325113484062
1.0690638753648467
1.0624278431759804
1.06200601657345
1.0185975169905443
1.0010538007721421
1.0163453081958247
1.0065916817527125
1.0761908357874137
1.087210488862866
1.0528187222834888
1.0469710938931722

SCALARS Omega double
LOOKUP_TABLE default
4.100276591395489
-10.327730795436082
-14.268649563397766
0.1321785705713845
4.492515426468466
-2.6837945533074454
-4.473557660634783
3.5422922230915064
1.0314781535196598
20.84264546033722
-8.188675201154046
-0.40947252232512654
-0.8985275653939238
-0.23421395942756337
-0.11369097867134356
-0.030612111190133417
-0.11116900932413508
-0.1864350413118328
-0.6569892800265231
-0.6110339256923171
-6.115745385050892
17.943670585109448
3.5124636782393184
-1.0379081270119115
0.1453482836500571
0.033512257696179555
-0.3220314024795739
2.1113617298254974
1.091836779170214
0.71430217408959
0.5849518485730429
0.5327239424929725
0.5070780229781008
0.47819019534533314
0.4415368869510798
0.3974117805670816
0.3477326855174089
0.29624639566451766
0.24497892024275283
0.19618313349196842
0.15080900292460434
0.10952048225669796
0.07261347350639219
0.040333453579124275
0.012569702993085395
-0.011155351329585401
-0.031081819755356795
-0.04752459062711595
-0.060811397862211375
-0.07154132509423881
-0.08001355261642618
-0.08658310712087437
-0.09151389784999633
-0.09520530149861882
-0.09785149337483899
-0.09967300325199721
-0.10081314043691555
-0.10146383312964069
-0.10170958672120364
-0.10162686877438432
-0.10124796093658014
-0.100592909488635
-0.09964829274356869
-0.09834303166584946
-0.09661228012447944
-0.09434272394968686
-0.09142625853745347
-0.08763222668431488
-0.08279843107413441
-0.07668844523080615
-0.06909527064200309
-0.05954731729103594
-0.047802903249969386
-0.033664973885465056
-0.01647275171221018
0.003910499114033987
0.027743081704726343
0.055309120537453696
0.0867769333804704
0.1220369049220437
0.16057613136083823
0.20168960504347902
0.24401350578082304
0.28593508886974267
0.32478694600396574
0.3576013700931871
0.37954715493408236
0.38524800492442124
0.370655621967265
0.3300023908606106
0.2610341029400537
0.16510919313875047
0.06635078647463324
0.3151066787097509
0.3393627792575564
-0.116464127492118
-0.13091185667442493
-0.10570544244128373
-0.11366535237417721
-0.12385496956468423
0.7178328075969961
0.844825062150474
0.04691930011486996
0.46988162820799684
0.40812474717936326
0.16694960755828092
0.002897547175422333
-0.07395212630508828
-0.1000794414524482
-0.1051963442852557
-0.1038554859555625
-0.10230780758084983
-0.09843631749301529
-0.08460653283898668
-0.04068562454058684
0.30650981069113964
0.09488991775560404
0.05186250842975124
0.2173010543421896
0.4399174100870147
0.5280590909252939
-0.10168073739804331
-0.0971510526444359
-0.1023406554710007
-0.08372762102511018
-0.09659159909592344
-0.07320444395688404
-0.011171932718895149
-0.04893133638165001
0.11627850663337147
0.32074728071658815
0.4093844304731072
0.49085197054207813
0.133521095349421
2.2490601200616225
2.527400928682843
0.31560108615767934
0.007244176733273138
-0.31878313544487547
0.43428948388201133
-0.10231092622108703
-0.09981692806405716
-0.10036161191589037
-0.09157790155478368
-0.08711259275202952
-0.06873062135341226
-0.0465545728569529
0.04633405892939196
0.21351020278403296
0.0406420504543352
-0.14344316639388988
-0.11680355787946615
-0.12342029435511878
-0.10619346693417234
0.9676272328609697
0.5747828401966383
-0.031028869523734636
0.23799457140300048
0.14049951445163256
0.45038740922755666
0.22190937382063725
0.0652362535362178
-0.09857906644495586
0.38752322420556334
-0.030069434434412068
-0.41888398810739214
-0.1508136577813628
0.03255470394298596
0.27537492140949527
-0.10461616328969542
-0.10807518480278623
-0.10488149130466594
-0.11268902260608997
-0.10497213967851804
-0.11310599821853527
-0.08190653120131539
-0.07324263405403678
0.8361155033640377
0.6923071888276555
-0.20088340153445536
-0.09796264604996967
-0.14249513301137987
-0.20891313998481947
-0.11464430760698754
0.3216035002334953
0.3990826750053852
0.5432661528299483
0.5181516061358534
-0.3016400703848615
0.37625886709555445
0.4676878473958303
-0.10188407620136399
-0.10167070349686429
-0.10038421079556177
-0.09788440007489448
-0.10072930314616375
-0.09731626898273986
-0.08620622829729463
-0.09350530320949123
-0.0902327654914923
-0.07756313163718409
-0.07426981170368192
-0.05627397508185466
-0.024308275533485253
-0.0564985920034267
0.023020098190722503
0.0869776229382144
0.2689062158620098
0.1706292235307956
-0.6191909294917652
-0.5147470841169139
2.329445225118822
1.977775432656232
-0.011509735355366462
-0.23816940700229622
-0.12062838988453156
0.1669067765736856
-1.0217322041322163
0.2655262803328818
0.1801728004576982
0.03920614717656961
0.10148348527303784
0.34662514697214825
-0.008566668969858676
0.3920916325696516
0.2186064418609594
0.36523518411931843
0.5338230402322633
0.71249399818196
0.42341547286753095
0.49727144014898594
0.32227161888160466
0.21880357136844952
0.12752218731498277
0.05381235952117091
-0.0016606519172546526
-0.04142765044564717
-0.06554031119323397
-0.04122242055253341
-0.08056138243522838
-0.06760899316182413
-0.08431587013587363
-0.0900782084111237
-0.09403104486061754
-0.09919241075173707
-0.0958260682429103
-0.09921886260678676
-0.10139610467727166
-0.10184407580575157
-0.10108332295891387
0.01396225084988123
0.13979943912240486
0.30760252635711316
-0.26389127315738187
0.09725913339108519
0.6218180596335176
0.5337798651870835
2.903995377801657
2.155648207265862
0.38564602074544607
0.43159595953568053
0.47340738223768625
0.005161758004359197
0.3062370625432034
-0.02441038489752802
-0.28101069591497413
0.5921227818732293
0.5085895250222453
0.07552629316156968
-0.10322296887731296
-0.10472893921779615
-0.10082993819186538
-0.10385718316140881
-0.09299651549749342
-0.08998797085806838
-0.07147385155957123
-0.041828838957406966
0.3101615018917589
0.034135990374422595
1.2523254612617953
1.4785748227904991
0.26516210034469956
0.0903693403560967
0.1803309547058461
0.4136173790001911
-0.10537196689889396
-0.1043347552859221
-0.11016426596226561
-0.10444550632402985
-0.11200116001573267
-0.09772746947777264
-0.09915262606974122
-0.028490043251691317
0.14423106337711467
5.598342302591959
5.4033310216290955
-0.012855761299373594
2.0975690307103627
0.4888528703124053
-0.10265928973092087
-0.10312383634480571
-0.10135194605798319
0.4019968996810274
-0.09983805538478732
-0.10270297647368229
-0.1010056688839541
-0.09587048404946838
-0.09124247914476485
-0.09487819303128231
-0.0867228698280069
-0.0794407160357442
-0.06713690872751772
-0.06531830849045055
-0.04228617850093033
0.010999425356933757
0.48867830817109886
0.0603949183918255
0.16287202191327455
0.24370900185568695
-0.06902117037216858
0.22262509022680504
0.06938332803352533
0.14914127614684958
-0.10985028243037749
-0.1682993784668598
0.15224910600440678
0.3821709177778016
0.3751898652402574
-0.0890014960413535
0.032410881777235896
0.44000536699580534
0.5321896093696236
-0.1340929809048936
0.4668976837179588
0.01121978928142361
-0.5101373601020572
0.34085160636951556
1.020318573090154
0.9271598518391075
0.37332386665029943
-0.026222501830748954
-0.1725691100219255
-0.0529672042053603
-0.16617295466226847
0.11856080318506643
1.2482118262421003
0.5729328676154056
-1.216772112487473

SCALARS Vx_analytic double
LOOKUP_TABLE default
4.100276591395489
-10.327730795436082
-14.268649563397766
0.13210637964697422
4.492515426468466
-2.6837945533074454
-4.473557660634783
3.5422922230915064
1.0314781535196598
20.84264546033722
-8.188675201154046
-0.40947252232512654
-0.8985275653939238
-0.23421395942756337
-0.11369097867134356
-0.030612111190133417
-0.11116900932413508
-0.1864350413118328
-0.6569892800265229
-0.6110339256923171
-6.115745385050892
17.943670585109448
3.513264695897624
-1.0157705221643976
0.14755553987769984
0.03451969899763132
-0.3200761990898761
2.1113617298254974
1.091836779170214
0.71430217408959
0.5849518485730429
0.5327239424929725
0.5070780229781008
0.47819019534533314
0.4415368869510798
0.3974117805670816
0.3477326855174089
0.29624639566451766
0.24497892024275283
0.19618313349196842
0.15080900292460434
0.10952048225669796
0.07261347350639219
0.040333453579124275
0.012569702993085395
-0.011155351329585401
-0.031081819755356795
-0.04752459062711595
-0.060811397862211375
-0.07154132509423881
-0.08001355261642618
-0.08658310712087437
-0.09151389784999633
-0.09520530149861882
-0.09785149337483899
-0.09967300325199721
-0.10081314043691555
-0.10146383312964069
-0.10170958672120364
-0.10162686877438432
-0.10124782765055303
-0.10059294204195009
-0.09964845504938362
-0.09834350190110307
-0.09661312131879819
-0.09434451871860947
-0.09142861870458847
-0.0876359704376918
-0.0828033427889109
-0.0766966137963803
-0.06910496134825612
-0.05956144851391202
-0.04782298754005991
-0.03367246039642132
-0.016485391452381554
0.0038884095097765393
0.027721518384711534
0.05529747411442687
0.08676827989982493
0.12202034388196316
0.16057453055739374
0.20170954643103944
0.24406643450332208
0.28600158380066787
0.32489654469078616
0.35771286937453245
0.37972785692923816
0.3856007159068532
0.37102831606714465
0.3304074131024307
0.26136830543648654
0.16535185060602747
0.06630766750247649
0.3072890282179712
0.33717061452092356
-0.11573714656013168
-0.13079943948012712
-0.10570535512391332
-0.11372780229948541
-0.12456353024137676
0.7269997387825877
0.8347617254271094
0.04600727050653744
0.467991011547464
0.4105073469606153
0.16692146289099602
0.0031366688239030595
-0.07378379845270724
-0.10001567391903368
-0.10518127231499225
-0.10385296486822286
-0.10231052803076829
-0.09846832164148946
-0.08473012843988742
-0.041016717923838104
0.30863173663683663
0.10164156815108803
0.05153787112986055
0.21754434337179018
0.44228040793504897
0.5270414712543845
-0.1016803665523476
-0.09715932322660245
-0.10233728464411802
-0.08377000668667747
-0.09657556248298485
-0.07315791420022108
-0.011102327663139481
-0.0490750793294264
0.11625277765604555
0.32025822989121455
0.4115959586540179
0.4921555331208208
0.13340677181581737
2.2562437466215726
2.4658842148376996
0.316201044782558
0.0070459417521375614
-0.3199528326109669
0.4335301034134704
-0.10230954769970388
-0.09981884026472261
-0.1003537180472765
-0.09159326976904618
-0.08708221543359855
-0.06878611534530726
-0.04648330343857998
0.04641118694695722
0.21338885459219875
0.04151052174497422
-0.1429973079278368
-0.11677288635863586
-0.12376119510985449
-0.10620445994408674
0.8926160215205373
0.5831067609988819
-0.03178275469461289
0.2379372067213967
0.14188665745990797
0.4592261061065876
0.22203848098082207
0.06507796699727643
-0.09857956794857693
0.38847507772026957
-0.030156942438432942
-0.4175139088450169
-0.15089691667407565
0.03283307489491332
0.27463727441334845
-0.10461649295414956
-0.10806434632249119
-0.1049061019315676
-0.11263371909575388
-0.1050894835365
-0.1129117505228717
-0.08229300621660386
-0.0728763247851859
0.8282370826628989
0.6979119990900579
-0.2006682243596255
-0.09797116703088467
-0.14243482955311856
-0.20985491953467605
-0.11468425977836538
0.32291998604929184
0.4004661603599461
0.5455847679290896
0.518208742767726
-0.30079309657105796
0.3759623336509231
0.4672919894446624
-0.101883330453393
-0.10167020731103267
-0.1003850289079665
-0.0978882385467579
-0.10072764797374228
-0.09731253721591471
-0.08622901541256758
-0.09351735548255344
-0.09022641066298948
-0.07755275575139402
-0.07432039420404554
-0.05635099744410078
-0.024297351235121865
-0.0564879194770452
0.02301212412060149
0.08694559797827378
0.2687318303377898
0.17053225418634077
-0.6002055555256528
-0.5404004018209178
2.332489161030566
1.9952133237033092
-0.01425735825522459
-0.2352658413395917
-0.12196078555212417
0.16889580909648977
-1.0064285288163723
0.2657657157797647
0.18013718698293918
0.03905086594865031
0.1013556426006642
0.3473621975745187
-0.00868431944419555
0.3932823963532756
0.21971500681196185
0.36633678585648294
0.5347506766808691
0.7167242441774994
0.42311179378162533
0.49705399018415647
0.32210796456541735
0.21875178329698175
0.12751921381714407
0.05384393201624123
-0.0016322894206666197
-0.04151191155064873
-0.06558852477115444
-0.041193178599958365
-0.08058918605331049
-0.06759113277235038
-0.08430334731522095
-0.09009150162918707
-0.09402489191073324
-0.09918920923254972
-0.09583184572165189
-0.09922064608285178
-0.10139490965510556
-0.10184361020515306
-0.10108341549804853
0.01383935692007008
0.13970756573244034
0.3079784830519153
-0.26982869697735856
0.09687450540464874
0.6181302600909323
0.5377275131525099
2.803641245253297
1.9883210013783326
0.3871698791886701
0.42802012396645817
0.47752159428392643
0.004780602870159726
0.3069585322808063
-0.024649601427369924
-0.28242466287450957
0.5891893005314887
0.512402115199178
0.07569952319075686
-0.10322246035633924
-0.1047231272756584
-0.10084273201007496
-0.10382419512380683
-0.09306743180288585
-0.08988417115472982
-0.07166214313221385
-0.04160908275382644
0.3094423826452443
0.0339551240385409
1.2650001535191417
1.4602339633011812
0.2655939521565077
0.09019050064835248
0.18038623593961056
0.4148559104648714
-0.10536896235447683
-0.1043393000525
-0.11013665881849284
-0.10448760294827986
-0.11189194719586548
-0.0979055117298268
-0.09883423321628833
-0.02803120503625911
0.14415472576217017
5.320999423523945
5.209113620693733
-0.012093327463312513
2.0940044611016218
0.4859303617038287
-0.10265782145731348
-0.1031214345326255
-0.10135356154035845
0.40109114383527195
-0.09984342184098421
-0.10269515363957969
-0.10099102635381332
-0.09589104254706435
-0.09127527610625273
-0.09484443757977556
-0.08667060521092507
-0.07952305266772867
-0.06724861035058675
-0.06522696170436196
-0.042173116022291755
0.01113015435965358
0.4872496262961576
0.060495842167753
0.16281780513829164
0.24343739591993468
-0.06948058667620427
0.22266343541758232
0.06925833770225495