# vtk DataFile Version 1.0
2D Simulation C++
ASCII
DATASET UNSTRUCTURED_GRID
FIELD FieldData 1
NODES 1 2 int
348 601

POINTS 348 double
0.0 0.5 0.0
0.0 1.0 0.0
2.0 1.0 0.0
2.0 0.5 0.0
0.0 0.528801679611206 0.0
0.0 0.564507782459259 0.0
0.0 0.6110168099403381 0.0
0.0 0.6721802353858948 0.0
0.0 0.7528436183929443 0.0
0.0 0.8593378663063049 0.0
0.16666941344738007 1.0 0.0
0.3333356976509094 1.0 0.0
0.5000020265579224 1.0 0.0
0.6666678786277771 1.0 0.0
0.8333337306976318 1.0 0.0
1.0 1.0 0.0
1.1666662693023682 1.0 0.0
1.3333321809768677 1.0 0.0
1.4999979734420776 1.0 0.0
1.6666642427444458 1.0 0.0
1.8333306312561035 1.0 0.0
2.0 0.8593378663063049 0.0
2.0 0.7528436183929443 0.0
2.0 0.6721802353858948 0.0
2.0 0.6110168099403381 0.0
2.0 0.564507782459259 0.0
2.0 0.528801679611206 0.0
0.029850948601961136 0.5 0.0
0.05970168858766556 0.5 0.0
0.08955242484807968 0.5 0.0
0.1194031685590744 0.5 0.0
0.14925390481948853 0.5 0.0
0.17910465598106384 0.5 0.0
0.20895539224147797 0.5 0.0
0.2388061285018921 0.5 0.0
0.2686568796634674 0.5 0.0
0.29850760102272034 0.5 0.0
0.32835835218429565 0.5 0.0
0.35820910334587097 0.5 0.0
0.3880598247051239 0.5 0.0
0.4179105758666992 0.5 0.0
0.44776129722595215 0.5 0.0
0.47761204838752747 0.5 0.0
0.5074627995491028 0.5 0.0
0.5373135209083557 0.5 0.0
0.5671642422676086 0.5 0.0
0.5970150232315063 0.5 0.0
0.6268657445907593 0.5 0.0
0.6567164659500122 0.5 0.0
0.6865672469139099 0.5 0.0
0.7164179682731628 0.5 0.0
0.7462686896324158 0.5 0.0
0.7761194705963135 0.5 0.0
0.8059701919555664 0.5 0.0
0.8358209133148193 0.5 0.0
0.865671694278717 0.5 0.0
0.89552241563797 0.5 0.0
0.9253731369972229 0.5 0.0
0.9552239179611206 0.5 0.0
0.9850746393203735 0.5 0.0
1.0149253606796265 0.5 0.0
1.0447760820388794 0.5 0.0
1.0746268033981323 0.5 0.0
1.1044776439666748 0.5 0.0
1.1343283653259277 0.5 0.0
1.1641790866851807 0.5 0.0
1.1940298080444336 0.5 0.0
1.2238805294036865 0.5 0.0
1.2537312507629395 0.5 0.0
1.2835819721221924 0.5 0.0
1.3134328126907349 0.5 0.0
1.3432835340499878 0.5 0.0
1.3731342554092407 0.5 0.0
1.4029849767684937 0.5 0.0
1.4328356981277466 0.5 0.0
1.4626864194869995 0.5 0.0
1.492537260055542 0.5 0.0
1.522387981414795 0.5 0.0
1.5522387027740479 0.5 0.0
1.5820894241333008 0.5 0.0
1.6119401454925537 0.5 0.0
1.6417908668518066 0.5 0.0
1.6716417074203491 0.5 0.0
1.701492428779602 0.5 0.0
1.731343150138855 0.5 0.0
1.761193871498108 0.5 0.0
1.7910445928573608 0.5 0.0
1.8208953142166138 0.5 0.0
1.8507460355758667 0.5 0.0
1.8805968761444092 0.5 0.0
1.910447597503662 0.5 0.0
1.940298318862915 0.5 0.0
1.970149040222168 0.5 0.0
1.7358819246292114 0.7499510645866394 0.0
0.2656642198562622 0.7486277222633362 0.0
0.49981194734573364 0.737183690071106 0.0
0.74151611328125 0.7359843254089355 0.0
0.9774143695831299 0.7371892929077148 0.0
1.201690912246704 0.7367381453514099 0.0
1.447761058807373 0.7383390665054321 0.0
1.8591958284378052 0.6421071290969849 0.0
0.14080412685871124 0.6421071290969849 0.0
1.588537573814392 0.6783608794212341 0.0
0.2553686201572418 0.6221352219581604 0.0
1.7466964721679688 0.6278358101844788 0.0
0.38199201226234436 0.6273008584976196 0.0
0.5013589859008789 0.6272794008255005 0.0
0.6207823157310486 0.6272526383399963 0.0
0.7401852607727051 0.627252459526062 0.0
0.8595882654190063 0.6272523999214172 0.0
0.9701492786407471 0.6212864518165588 0.0
1.0807102918624878 0.6272523999214172 0.0
1.2001131772994995 0.6272523999214172 0.0
1.3195161819458008 0.6272523999214172 0.0
1.4488563537597656 0.6310953497886658 0.0
1.9247323274612427 0.5706554055213928 0.0
0.07526770234107971 0.5706554055213928 0.0
1.5377081632614136 0.5910930037498474 0.0
1.6566967964172363 0.5934624075889587 0.0
1.8074009418487549 0.5708622932434082 0.0
0.1940300166606903 0.5737577676773071 0.0
1.0286364555358887 0.5665481686592102 0.0
1.14803946018219 0.5665481686592102 0.0
0.9116620421409607 0.5665481686592102 0.0
1.2674424648284912 0.5665481686592102 0.0
0.7922590970993042 0.5665481686592102 0.0
0.6728560328483582 0.5665482878684998 0.0
0.5534531474113464 0.5665481686592102 0.0
1.3892061710357666 0.5727682709693909 0.0
0.43402159214019775 0.5665869116783142 0.0
0.3146642744541168 0.5667200088500977 0.0
1.8656742572784424 0.5607567429542542 0.0
0.1343258023262024 0.5607567429542542 0.0
1.5970147848129272 0.5642029047012329 0.0
1.8783670663833618 0.7786769866943359 0.0
0.12163297086954117 0.7786769866943359 0.0
1.7164177894592285 0.562579333782196 0.0
1.4776118993759155 0.5620538592338562 0.0
1.5857784748077393 0.867691159248352 0.0
0.25373148918151855 0.5588531494140625 0.0
0.9701492786407471 0.5582930445671082 0.0
1.0895521640777588 0.5582930445671082 0.0
0.8507462739944458 0.5582930445671082 0.0
1.20895516872406 0.5582930445671082 0.0
0.7313433289527893 0.5582930445671082 0.0
1.3283581733703613 0.5582930445671082 0.0
0.6119403839111328 0.5582930445671082 0.0
0.49253740906715393 0.5582930445671082 0.0
0.37313446402549744 0.5582956075668335 0.0
0.36864349246025085 0.7376502752304077 0.0
0.602456271648407 0.7355343103408813 0.0
0.8441241383552551 0.7366551756858826 0.0
1.3355978727340698 0.7366551160812378 0.0
1.0895521640777588 0.7378703355789185 0.0
0.07051979005336761 0.6486480832099915 0.0
1.9294801950454712 0.6486480832099915 0.0
1.5086064338684082 0.6743985414505005 0.0
1.6785967350006104 0.6649783849716187 0.0
1.9543375968933105 0.5452249050140381 0.0
0.04566239193081856 0.5452249050140381 0.0
1.6567095518112183 0.5496091842651367 0.0
1.53738272190094 0.5491842031478882 0.0
0.91306072473526 0.8965699672698975 0.0
1.7782752513885498 0.5446287989616394 0.0
1.4163299798965454 0.5447981357574463 0.0
0.4287482798099518 0.8945969939231873 0.0
1.2610714435577393 0.8950135707855225 0.0
0.4313095211982727 0.6832783222198486 0.0
0.31561949849128723 0.6858259439468384 0.0
1.029850721359253 0.6781684160232544 0.0
0.9082015752792358 0.6848641633987427 0.0
1.1492537260055542 0.6781684160232544 0.0
0.7886138558387756 0.678956151008606 0.0
1.2709345817565918 0.684736430644989 0.0
0.6685023903846741 0.6868807673454285 0.0
1.4007169008255005 0.6702371835708618 0.0
0.5483440160751343 0.6792802214622498 0.0
0.19808045029640198 0.6887137293815613 0.0
1.797759771347046 0.6853783130645752 0.0
0.6811949610710144 0.8757594227790833 0.0
1.0189321041107178 0.8474968671798706 0.0
0.7922950983047485 0.8446238040924072 0.0
1.3765455484390259 0.8590760827064514 0.0
1.1571698188781738 0.8478953838348389 0.0
1.8954496383666992 0.5359624624252319 0.0
1.8360060453414917 0.5359931588172913 0.0
0.10455036163330078 0.5359624624252319 0.0
0.16417928040027618 0.5353734493255615 0.0
0.5530290007591248 0.8422092199325562 0.0
0.2832632064819336 0.5367912650108337 0.0
0.22469767928123474 0.5394234657287598 0.0
0.9405550956726074 0.5357381105422974 0.0
0.9997434020042419 0.5357381105422974 0.0
1.0600273609161377 0.5365630984306335 0.0
1.1191463470458984 0.5357381105422974 0.0
0.8802711367607117 0.5365630984306335 0.0
0.8211521506309509 0.5357381105422974 0.0
1.2385493516921997 0.5357381105422974 0.0
1.179430365562439 0.5365630984306335 0.0
0.7608681321144104 0.5365630984306335 0.0
0.7017492055892944 0.5357381105422974 0.0
1.2988333702087402 0.5365630984306335 0.0
1.357560396194458 0.5390686392784119 0.0
0.5823462605476379 0.5357381105422974 0.0
0.6414651870727539 0.5365630984306335 0.0
0.5220622420310974 0.5365630984306335 0.0
0.4629422128200531 0.535739541053772 0.0
0.3435409665107727 0.5357455015182495 0.0
0.4026572108268738 0.5365669131278992 0.0
0.21006634831428528 0.8590372204780579 0.0
1.7943172454833984 0.8627070188522339 0.0
0.06134982034564018 0.7191494703292847 0.0
1.938650131225586 0.7191494703292847 0.0
1.634666085243225 0.7584379315376282 0.0
0.3355695903301239 0.8387951850891113 0.0
1.537941336631775 0.7633647918701172 0.0
1.9670078754425049 0.574067234992981 0.0
0.032992132008075714 0.574067234992981 0.0
1.6862140893936157 0.5314788222312927 0.0
1.6272135972976685 0.5317342281341553 0.0
1.5077245235443115 0.5309156775474548 0.0
1.5668202638626099 0.5316618084907532 0.0
1.7466963529586792 0.5298213958740234 0.0
1.4473658800125122 0.5297333002090454 0.0
1.804386019706726 0.5275400876998901 0.0
1.9283779859542847 0.5282225012779236 0.0
1.8656879663467407 0.5267112255096436 0.0
0.13432854413986206 0.5271331071853638 0.0
0.07162196189165115 0.5282225012779236 0.0
0.25373148918151855 0.527070939540863 0.0
0.19419340789318085 0.5297109484672546 0.0
0.31349387764930725 0.5272363424301147 0.0
0.37313446402549744 0.5270199179649353 0.0
0.4329495429992676 0.5274069309234619 0.0
0.49253740906715393 0.5270196795463562 0.0
0.5523557066917419 0.5274024605751038 0.0
1.3898069858551025 0.5277745127677917 0.0
1.3283581733703613 0.5270196795463562 0.0
0.6119403839111328 0.5270196795463562 0.0
1.2685397863388062 0.5274024605751038 0.0
0.6717586517333984 0.5274024605751038 0.0
0.7313433289527893 0.5270196795463562 0.0
1.20895516872406 0.5270196795463562 0.0
0.7911616563796997 0.5274024605751038 0.0
0.8507462739944458 0.5270196795463562 0.0
1.1491369009017944 0.5274024605751038 0.0
1.0895521640777588 0.5270196795463562 0.0
0.9105646014213562 0.5274024605751038 0.0
0.9701492786407471 0.5270196795463562 0.0
1.0297338962554932 0.5274024605751038 0.0
1.4776118993759155 0.5259945392608643 0.0
1.597015619277954 0.5255197882652283 0.0
1.7164177894592285 0.525999903678894 0.0
1.6834615468978882 0.8477573990821838 0.0
1.5822722911834717 0.6086509227752686 0.0
0.20459823310375214 0.6270732283592224 0.0
1.8037469387054443 0.6209055185317993 0.0
0.09990309923887253 0.8589919805526733 0.0
1.9000968933105469 0.8589919805526733 0.0
1.75603187084198 0.5789161324501038 0.0
0.10896337777376175 0.5982794761657715 0.0
1.8910366296768188 0.5982794761657715 0.0
1.4950518608093262 0.605266273021698 0.0
1.7049394845962524 0.6007562279701233 0.0
1.4387125968933105 0.5775743722915649 0.0
1.489302158355713 0.851039469242096 0.0
0.15732239186763763 0.5961292386054993 0.0
1.8436260223388672 0.5944437384605408 0.0
0.4399496018886566 0.6259797215461731 0.0
1.022565245628357 0.6257523894309998 0.0
[...]
POINT_DATA 348
SCALARS Psi double
LOOKUP_TABLE default
1.0878984745059188
1.0
1.0
1.0766684692566453
1.0877880062308751
1.0875451104726954
1.0891468084440858
1.0938728055775004
1.1033510760286007
1.1418217491790548
1.0
1.0
1.0
1.0
1.0
1.0
1.0
1.0
1.0
1.0
1.0
1.1342685463948652
1.0942751242409676
1.0844750354831842
1.0798819113724094
1.0777145537983475
1.0768590541920293
1.0879812890902065
1.0867118737203667
1.0848223047273016
1.0824207999612776
1.0794798105856382
1.0760237479536183
1.0721218737328342
1.067867293876566
1.0633834607860386
1.058758476421608
1.0540920620728187
1.0494630468909552
1.044956522337861
1.040624393395564
1.0364944248356234
1.0325996192880917
1.0289672844690563
1.0256109400015743
1.022518384511848
1.0196944968263217
1.0171381906735364
1.0148448620382098
1.0127905844151863
1.0109687791865205
1.0093691715629334
1.0079826246132657
1.0067887562643616
1.0057803759758295
1.0049494028548855
1.0042890027962368
1.0037866646418072
1.003438299319075
1.0032411995659936
1.003193444263997
1.0032914481784256
1.003534631137525
1.0039285742433672
1.004476217059006
1.0051807818982679
1.0060462357461981
1.0070859529070182
1.0083062724644172
1.0097144700031615
1.011316260526926
1.013134552845829
1.0151740580343658
1.0174309700493596
1.0199346785756118
1.0226764930901482
1.0256555034855535
1.028872214843617
1.0323240682515773
1.035990389185019
1.0398395377927863
1.043833844027077
1.0479255363452402
1.0520543032562306
1.0561439082955983
1.060107257991801
1.0638381740187968
1.0672402127748224
1.070204758710061
1.0726291927367781
1.0744756476863022
1.0757491274576902
1.0764613444357818
1.0467867111097489
1.05188549749953
1.0201199545674666
1.0058086488405245
1.0016730890732293
1.0036439487144642
1.0139159671409277
1.0733682570847236
1.0821127466395342
1.0311074484642166
1.0635343109924522
1.056689605790546
1.0425530035947297
1.0268241535057543
1.0156243623884156
1.0084497788026172
1.0043633587493617
1.0028457867716796
1.0030421303403574
1.0054010944039993
1.0102988518924456
1.0190457071421446
1.0762815970208401
1.0856765450456407
1.029251343432489
1.0445295116975015
1.0659083918864372
1.0740341916067153
1.003069060013696
1.0045811566254796
1.0038189305409797
1.008611711426915
1.007031564622472
1.0132384594371584
1.0232041804416916
1.015754090395848
1.0374860201990457
1.055478417970924
1.071980830286011
1.0811616401265
1.0372069616075084
1.0782438794756355
1.0863580194891453
1.0536728172764973
1.0235734735172646
1.0130768691662628
1.0652546100949474
1.0031970524730112
1.0035798881935627
1.005165743127908
1.006342712997285
1.0098477968555462
1.011873277050544
1.0179114426599627
1.0300947466121222
1.0464794892479876
1.0356947694515573
1.0123546184430505
1.0031387426964238
1.0079927420496273
1.0019375177825471
1.0902638557374287
1.0807843178728154
1.022636796751749
1.044579793151837
1.0766486529924733
1.0869297742305135
1.0454993564028197
1.0301804044160834
1.000432477945714
1.0622233994946004
1.0182593122279575
1.0105238643737666
1.0014801910947342
1.0321300518410075
1.0494026491767936
1.0022866924228697
1.0028325832447513
1.0035487593324004
1.0056184817133798
1.0068375194662305
1.010584496684742
1.0140169693415864
1.0195846246205804
1.0716959174673106
1.0635402041394355
1.0033690888747586
1.0005515289266012
1.0019091530081186
1.0044737988317904
1.0011770794818946
1.0738826786534985
1.068932668685394
1.0837058532098665
1.0778577788647907
1.0080518454116594
1.0609556648015985
1.069822466203316
1.0035449095528757
1.00315689811338
1.0033514355710702
1.0041283491621853
1.0045480023594848
1.0061844091927707
1.007584955933143
1.005537017787909
1.0085721333130857
1.011722071882378
1.0104033157148797
1.013927017822792
1.0208731770420265
1.0158334216377225
1.027074305041564
1.034252173226318
1.0515054291938826
1.0425620823573991
1.0395567065611533
1.0362112339411225
1.098043592003913
1.0884747659977339
1.0302226293673082
1.0266177484462184
1.019376448788733
1.0777981806244425
1.0869960836179267
1.0498144934644758
1.041708105056086
1.0271153359102434
1.033926273625814
1.0581499446394138
1.0211277923836954
1.0654241818171086
1.0754785720491227
1.07158965552479
1.081029166755704
1.0859076136182286
1.0655604214028813
1.0740717861641007
1.0562842958538785
1.0470323712778828
1.038362659914786
1.0306044752124568
1.023898083915261
1.0163204858116224
1.0121235364305823
1.0182792587005496
1.0089275203721766
1.0137006778721844
1.010077578126782
1.006500390288759
1.0073102832350653
1.0053049710572741
1.0047733073656608
1.0036843055083031
1.0039874088494383
1.0032948803011412
1.0031996899315185
1.0240373575829
1.037782711153776
1.054027665597171
1.0247321279254593
1.0340237284795015
1.0720977954053774
1.0654174776673158
1.0766798885028088
1.0694555700113682
1.0590427058656997
1.0841870038584458
1.0751055971259487
1.0242340643880594
1.0512398238739737
1.0196470454202295
1.0091319940554675
1.0790605294258204
1.0704032401573664
1.034444006344295
1.0027017717232871
1.00331160666536
1.0039833364085742
1.0061442472404094
1.0075903524984562
1.0117379897082424
1.0131967721968622
1.0208948219763407
1.0530712580073502
1.0269044500744027
1.076945612586621
1.0853521982253411
1.0490327200726126
1.0329780828114221
1.0415769128202017
1.0531510677116243
1.002383025725276
1.0026693188057267
1.003941891133647
1.0050219755394458
1.0079147626328102
1.0097441058479244
1.0144741786151463
1.0255108295520219
1.0411378679621532
1.1079720339972992
1.0992860060360792
1.0766662395483495
1.0879553704915923
1.0607630654084113
1.0029734870243021
1.003251575736884
1.0031706622359355
1.0612209313493601
1.0037527086784601
1.004377022242904
1.005600346258115
1.0053642798870392
1.0069008653554914
1.0083446693184095
1.010708077112958
1.010158338085699
1.012799059173114
1.0154620518406459
1.0192794234283074
1.026546538835541
1.0680748969585945
1.03207164991569
1.0420100803880306
1.0488854790191864
1.017436272664007
1.0457873258268338
1.0304818268431855
1.0386471657761414
1.0014570165754395
1.0217583110289157
1.038965910382208
1.0837777927920305
1.0744046642619012
1.0002569121773366
1.0282062276242916
1.069242865832643
1.0781093475385575
1.0039401956853697
1.0875215093190762
1.0771331067684873
1.087213640991448
1.0783251134840641
1.0690638753648485
1.062427843175982
1.0620060165734528
1.0185975169905455
1.0010538007721421
1.0163453081958258
1.006591681752713
1.076190835787416
1.0872104888628678
1.0528187222834893
1.0469710938931729

SCALARS Omega double
LOOKUP_TABLE default
4.100276591395048
-10.327730795436128
-14.268649563397743
0.13217857057176252
4.4925154264690175
-2.683794553308029
-4.47355766063473
3.5422922230915153
1.0314781535196542
20.84264546033726
-8.188675201154108
-0.4094725223251353
-0.8985275653939279
-0.23421395942754966
-0.11369097867129972
-0.030612111190121676
-0.11116900932411387
-0.1864350413118421
-0.6569892800265542
-0.611033925692379
-6.115745385050924
17.943670585109444
3.512463678239371
-1.0379081270118788
0.14534828365013996
0.033512257696081425
-0.3220314024801899
2.111361729825437
1.0918367791701842
0.7143021740895625
0.5849518485730232
0.5327239424929605
0.5070780229780949
0.4781901953453316
0.44153688695108106
0.3974117805670845
0.34773268551741254
0.2962463956645215
0.24497892024275641
0.19618313349197158
0.15080900292460706
0.10952048225670022
0.07261347350639404
0.040333453579125746
0.012569702993086585
-0.01115535132958443
-0.031081819755355983
-0.04752459062711525
-0.060811397862210737
-0.0715413250942382
-0.08001355261642555
-0.08658310712087375
-0.09151389784999571
-0.09520530149861821
-0.09785149337483841
-0.0996730032519966
-0.10081314043691496
-0.10146383312964007
-0.10170958672120302
-0.10162686877438369
-0.10124796093657949
-0.10059290948863436
-0.09964829274356805
-0.09834303166584878
-0.09661228012447873
-0.09434272394968617
-0.0914262585374527
-0.08763222668431402
-0.0827984310741334
-0.07668844523080494
-0.06909527064200167
-0.05954731729103426
-0.047802903249967416
-0.03366497388546275
-0.016472751712207478
0.003910499114037125
0.027743081704729954
0.0553091205374578
0.08677693338047497
0.12203690492204873
0.16057613136084362
0.20168960504348454
0.24401350578082853
0.2859350888697478
0.32478694600396973
0.35760137009318904
0.37954715493408087
0.3852480049244139
0.37065562196724855
0.3300023908605791
0.2610341029399988
0.16510919313866396
0.06635078647456587
0.3151066787097525
0.33936277925755853
-0.11646412749212066
-0.13091185667442815
-0.10570544244128627
-0.1136653523741795
-0.12385496956468671
0.7178328075969975
0.8448250621504707
0.04691930011487235
0.46988162820800006
0.40812474717936786
0.1669496075582833
0.002897547175422781
-0.07395212630508868
-0.10007944145244874
-0.10519634428525614
-0.10385548595556272
-0.10230780758085001
-0.09843631749301533
-0.08460653283898625
-0.040685624540585295
0.30650981069110206
0.09488991775555736
0.05186250842975494
0.2173010543421948
0.43991741008701335
0.5280590909252916
-0.10168073739804291
-0.0971510526444354
-0.10234065547100034
-0.08372762102510933
-0.09659159909592312
-0.07320444395688375
-0.011171932718894386
-0.04893133638164822
0.1162785066333737
0.3207472807165918
0.40938443047309186
0.4908519705420621
0.13352109534942594
2.2490601200616283
2.5274009286828516
0.3156010861576841
0.00724417673327621
-0.31878313544489056
0.43428948388201377
-0.10231092622108659
-0.09981692806405669
-0.10036161191588999
-0.09157790155478303
-0.08711259275202918
-0.06873062135341095
-0.04655457285695241
0.046334058929393365
0.21351020278403618
0.04064205045433512
-0.14344316639389318
-0.11680355787946915
-0.12342029435512113
-0.10619346693417475
0.9676272328609612
0.5747828401966459
-0.03102886952373347
0.23799457140300492
0.14049951445152456
0.4503874092274981
0.2219093738206428
0.06523625353622196
-0.09857906644495645
0.3875232242055642
-0.030069434434409736
-0.41888398810739985
-0.15081365778136765
0.03255470394298631
0.2753749214094979
-0.10461616328969651
-0.10807518480278769
-0.10488149130466691
-0.11268902260609157
-0.10497213967851893
-0.11310599821853708
-0.08190653120131532
-0.07324263405403796
0.8361155033640415
0.69230718882766
-0.2008834015344584
-0.09796264604997425
-0.14249513301138603
-0.20891313998482827
-0.1146443076069919
0.3216035002334583
0.3990826750053754
0.543266152829923
0.5181516061358449
-0.30164007038487034
0.37625886709555784
0.4676878473958307
-0.10188407620136342
-0.10167070349686372
-0.10038421079556117
-0.09788440007489384
-0.10072930314616321
-0.09731626898273932
-0.08620622829729374
-0.09350530320949053
-0.09023276549149178
-0.07756313163718358
-0.07426981170368069
-0.05627397508185294
-0.024308275533484452
-0.05649859200342613
0.023020098190723745
0.08697762293821636
0.2689062158620134
0.1706292235307985
-0.6191909294917722
-0.5147470841169205
2.3294452251188313
1.9777754326562458
-0.011509735355367727
-0.23816940700230016
-0.12062838988453502
0.16690677657362438
-1.02173220413236
0.2655262803328871
0.18017280045770367
0.039206147176573385
0.10148348527304256
0.3466251469721514
-0.008566668969855825
0.39209163256964835
0.21860644186088746
0.3652351841192969
0.5338230402322474
0.7124939981819257
0.42341547286753317
0.4972714401489826
0.3222716188816084
0.21880357136845285
0.12752218731498524
0.0538123595211725
-0.0016606519172536333
-0.041427650445645066
-0.06554031119323248
-0.04122242055253271
-0.08056138243522731
-0.06760899316182356
-0.08431587013587308
-0.09007820841112292
-0.09403104486061696
-0.09919241075173653
-0.09582606824290964
-0.09921886260678614
-0.10139610467727109
-0.10184407580575099
-0.10108332295891327
0.01396225084988454
0.13979943912241002
0.3076025263571178
-0.2638912731573926
0.09725913339108935
0.621818059633519
0.5337798651870856
2.9039953778016585
2.1556482072658643
0.3856460207454495
0.43159595953566005
0.47340738223767626
0.005161758004361974
0.3062370625432084
-0.024410384897525686
-0.2810106959149861
0.5921227818732224
0.5085895250222414
0.07552629316157108
-0.10322296887731315
-0.10472893921779645
-0.10082993819186548
-0.10385718316140927
-0.09299651549749322
-0.08998797085806888
-0.07147385155957035
-0.041828838957407036
0.3101615018917623
0.03413599037442615
1.2523254612618007
1.4785748227905042
0.26516210034470483
0.09036934035610113
0.18033095470585134
0.41361737900019535
-0.10537196689889507
-0.10433475528592313
-0.11016426596226708
-0.10444550632403073
-0.11200116001573426
-0.09772746947777315
-0.09915262606974275
-0.028490043251691806
0.14423106337711633
5.598342302591974
5.403331021629109
-0.012855761299579993
2.097569030710422
0.4888528703124089
-0.10265928973092063
-0.10312383634480554
-0.10135194605798294
0.4019968996810308
-0.09983805538478703
-0.10270297647368216
-0.10100566888395397
-0.09587048404946799
-0.0912424791447643
-0.09487819303128225
-0.08672286982800682
-0.07944071603574332
-0.06713690872751647
-0.06531830849045042
-0.042286178500930006
0.010999425356934614
0.4886783081711005
0.06039491839182696
0.16287202191327718
0.24370900185569022
-0.0690211703721684
0.2226250902268106
0.06938332803352963
0.14914127614685396
-0.10985028243038128
-0.1682993784668634
0.1522491060044116
0.38217091777777407
0.37518986524023257
-0.08900149604135216
0.03241088177723881
0.44000536699579834
0.5321896093696153
-0.13409298090489746
0.4668976837178812
0.01121978928122443
-0.5101373601021026
0.3408516063695062
1.0203185730901587
0.9271598518391109
0.37332386665030004
-0.02622250183074648
-0.1725691100219195
-0.05296720420535889
-0.16617295466227275
0.11856080318495596
1.2482118262420778
0.5729328676153908
-1.2167721124874733

SCALARS Vx_analytic double
LOOKUP_TABLE default
4.100276591395048
-10.327730795436128
-14.268649563397743
0.13210637964735175
4.4925154264690175
-2.683794553308029
-4.47355766063473
3.5422922230915153
1.0314781535196542
20.84264546033726
-8.188675201154108
-0.4094725223251353
-0.8985275653939279
-0.23421395942754966
-0.11369097867129972
-0.030612111190121676
-0.11116900932411387
-0.1864350413118421
-0.656989280026554
-0.611033925692379
-6.115745385050924
17.943670585109444
3.513264695897673
-1.0157705221643654
0.14755553987778194
0.03451969899753303
-0.32007619909048957
2.111361729825437
1.0918367791701842
0.7143021740895625
0.5849518485730232
0.5327239424929605
0.5070780229780949
0.4781901953453316
0.44153688695108106
0.3974117805670845
0.34773268551741254
0.2962463956645215
0.24497892024275641
0.19618313349197158
0.15080900292460706
0.10952048225670022
0.07261347350639404
0.040333453579125746
0.012569702993086585
-0.01115535132958443
-0.031081819755355983
-0.04752459062711525
-0.060811397862210737
-0.0715413250942382
-0.08001355261642555
-0.08658310712087375
-0.09151389784999571
-0.09520530149861821
-0.09785149337483841
-0.0996730032519966
-0.10081314043691496
-0.10146383312964007
-0.10170958672120302
-0.10162686877438369
-0.10124782765055237
-0.10059294204194945
-0.0996484550493829
-0.09834350190110262
-0.09661312131879758
-0.09434451871860869
-0.09142861870458772
-0.08763597043769136
-0.08280334278890973
-0.07669661379637911
-0.06910496134825456
-0.05956144851391035
-0.04782298754005831
-0.03367246039641894
-0.016485391452378657
0.0038884095097794272
0.02772151838471514
0.05529747411443093
0.08676827989982953
0.12202034388196838
0.16057453055739956
0.20170954643104505
0.24406643450332838
0.2860015838006729
0.32489654469078955
0.35771286937453195
0.37972785692923633
0.3856007159068459
0.37102831606712766
0.3304074131023996
0.26136830543643175
0.16535185060594096
0.06630766750240853
0.30728902821797266
0.3371706145209256
-0.11573714656013433
-0.13079943948013037
-0.10570535512391588
-0.1137278022994877
-0.12456353024137928
0.7269997387825893
0.834761725427106
0.046007270506539785
0.46799101154746703
0.4105073469606199
0.1669214628909983
0.003136668823903451
-0.07378379845270763
-0.1000156739190342
-0.10518127231499266
-0.10385296486822308
-0.10231052803076847
-0.0984683216414895
-0.08473012843988685
-0.04101671792383658
0.3086317366368002
0.10164156815103985
0.05153787112986415
0.2175443433717953
0.4422804079350477
0.5270414712543818
-0.10168036655234718
-0.09715932322660217
-0.10233728464411768
-0.08377000668667661
-0.09657556248298453
-0.07315791420022079
-0.01110232766313879
-0.04907507932942473
0.11625277765604773
0.3202582298912182
0.41159595865400256
0.49215553312080473
0.1334067718158222
2.256243746621563
2.4658842148377067
0.3162010447825616
0.007045941752140646
-0.31995283261098223
0.43353010341347276
-0.10230954769970343
-0.09981884026472235
-0.10035371804727612
-0.09159326976904553
-0.08708221543359818
-0.06878611534530595
-0.04648330343857946
0.04641118694695847
0.21338885459220192
0.041510521744974355
-0.14299730792784013
-0.11677288635863885
-0.1237611951098569
-0.10620445994408916
0.8926160215205331
0.5831067609988896
-0.03178275469461177
0.23793720672140092
0.14188665745980122
0.4592261061065221
0.22203848098082762
0.06507796699728073
-0.09857956794857753
0.38847507772027096
-0.030156942438430638
-0.4175139088450246
-0.15089691667408053
0.032833074894913626
0.27463727441335106
-0.10461649295415065
-0.10806434632249265
-0.10490610193156859
-0.11263371909575547
-0.10508948353650091
-0.11291175052287349
-0.08229300621660389
-0.07287632478518713
0.8282370826629027
0.6979119990900623
-0.20066822435962858
-0.09797116703088936
-0.14243482955312473
-0.2098549195346849
-0.11468425977836962
0.32291998604925515
0.4004661603599364
0.5455847679290645
0.5182087427677174
-0.3007930965710668
0.37596233365092646
0.46729198944466277
-0.10188333045339244
-0.1016702073110321
-0.10038502890796588
-0.09788823854675728
-0.10072764797374174
-0.09731253721591414
-0.08622901541256671
-0.09351735548255276
-0.09022641066298893
-0.07755275575139349
-0.07432039420404432
-0.05635099744409906
-0.02429735123512106
-0.056487919477044624
0.02301212412060272
0.08694559797827563
0.2687318303377934
0.1705322541863435
-0.6002055555256596
-0.5404004018209299
2.332489161030575
1.995213323703323
-0.01425735825522595
-0.23526584133959563
-0.12196078555212773
0.1688958090964287
-1.006428528816521
0.26576571577976843
0.18013718698294465
0.039050865948654076
0.10135564260066889
0.34736219757451847
-0.008684319444192725
0.39328239635327233
0.2197150068118917
0.36633678585645835
0.5347506766808531
0.7167242441774644
0.4231117937816278
0.49705399018415297
0.3221079645654209
0.21875178329698514
0.12751921381714654
0.053843932016242824
-0.0016322894206655988
-0.04151191155064663
-0.06558852477115294
-0.04119317859995765
-0.0805891860533092
-0.06759113277234977
-0.08430334731522042
-0.0900915016291863
-0.09402489191073267
-0.09918920923254916
-0.0958318457216512
-0.0992206460828512
-0.101394909655105
-0.10184361020515248
-0.10108341549804796
0.013839356920073383
0.13970756573244586
0.30797848305191994
-0.2698286969773696
0.09687450540465277
0.6181302600909335
0.5377275131525117
2.8036412452532966
1.9883210013783974
0.38716987918867357
0.42802012396643807
0.47752159428391716
0.004780602870162482
0.30695853228081127
-0.0246496014273675
-0.28242466287452167
0.5891893005314814
0.5124021151991712
0.0756995231907584
-0.10322246035633943
-0.1047231272756587
-0.10084273201007507
-0.10382419512380729
-0.09306743180288564
-0.08988417115473037
-0.07166214313221303
-0.0416090827538265
0.30944238264524776
0.03395512403854445
1.265000153519146
1.460233963301187
0.2655939521565136
0.09019050064835692
0.1803862359396158
0.41485591046487563
-0.10536896235447811
-0.10433930005250103
-0.1101366588184943
-0.10448760294828076
-0.11189194719586705
-0.09790551172982731
-0.09883423321628974
-0.02803120503625954
0.14415472576217173
5.320999423523964
5.209113620693746
-0.012093327463518908
2.0940044611016835
0.48593036170383225
-0.10265782145731324
-0.10312143453262533
-0.1013535615403582
0.4010911438352752
-0.09984342184098387
-0.10269515363957957
-0.10099102635381318
-0.09589104254706396
-0.09127527610625218
-0.09484443757977547
-0.08667060521092498
-0.07952305266772783
-0.06724861035058553
-0.06522696170436183
-0.04217311602229139
0.011130154359654408
0.48724962629615903
0.060495842167754464
0.16281780513829427
0.24343739591993785
-0.06948058667620421