# vtk DataFile Version 1.0
2D Simulation C++
ASCII
DATASET UNSTRUCTURED_GRID
FIELD FieldData 1
NODES 1 2 int
348 601

POINTS 348 double
0.0 0.5 0.0
0.0 1.0 0.0
2.0 1.0 0.0
2.0 0.5 0.0
0.0 0.528801679611206 0.0
0.0 0.564507782459259 0.0
0.0 0.6110168099403381 0.0
0.0 0.6721802353858948 0.0
0.0 0.7528436183929443 0.0
0.0 0.8593378663063049 0.0
0.16666941344738007 1.0 0.0
0.3333356976509094 1.0 0.0
0.5000020265579224 1.0 0.0
0.6666678786277771 1.0 0.0
0.8333337306976318 1.0 0.0
1.0 1.0 0.0
1.1666662693023682 1.0 0.0
1.3333321809768677 1.0 0.0
1.4999979734420776 1.0 0.0
1.6666642427444458 1.0 0.0
1.8333306312561035 1.0 0.0
2.0 0.8593378663063049 0.0
2.0 0.7528436183929443 0.0
2.0 0.6721802353858948 0.0
2.0 0.6110168099403381 0.0
2.0 0.564507782459259 0.0
2.0 0.528801679611206 0.0
0.029850948601961136 0.5 0.0
0.05970168858766556 0.5 0.0
0.08955242484807968 0.5 0.0
0.1194031685590744 0.5 0.0
0.14925390481948853 0.5 0.0
0.17910465598106384 0.5 0.0
0.20895539224147797 0.5 0.0
0.2388061285018921 0.5 0.0
0.2686568796634674 0.5 0.0
0.29850760102272034 0.5 0.0
0.32835835218429565 0.5 0.0
0.35820910334587097 0.5 0.0
0.3880598247051239 0.5 0.0
0.4179105758666992 0.5 0.0
0.44776129722595215 0.5 0.0
0.47761204838752747 0.5 0.0
0.5074627995491028 0.5 0.0
0.5373135209083557 0.5 0.0
0.5671642422676086 0.5 0.0
0.5970150232315063 0.5 0.0
0.6268657445907593 0.5 0.0
0.6567164659500122 0.5 0.0
0.6865672469139099 0.5 0.0
0.7164179682731628 0.5 0.0
0.7462686896324158 0.5 0.0
0.7761194705963135 0.5 0.0
0.8059701919555664 0.5 0.0
0.8358209133148193 0.5 0.0
0.865671694278717 0.5 0.0
0.89552241563797 0.5 0.0
0.9253731369972229 0.5 0.0
0.9552239179611206 0.5 0.0
0.9850746393203735 0.5 0.0
1.0149253606796265 0.5 0.0
1.0447760820388794 0.5 0.0
1.0746268033981323 0.5 0.0
1.1044776439666748 0.5 0.0
1.1343283653259277 0.5 0.0
1.1641790866851807 0.5 0.0
1.1940298080444336 0.5 0.0
1.2238805294036865 0.5 0.0
1.2537312507629395 0.5 0.0
1.2835819721221924 0.5 0.0
1.3134328126907349 0.5 0.0
1.3432835340499878 0.5 0.0
1.3731342554092407 0.5 0.0
1.4029849767684937 0.5 0.0
1.4328356981277466 0.5 0.0
1.4626864194869995 0.5 0.0
1.492537260055542 0.5 0.0
1.522387981414795 0.5 0.0
1.5522387027740479 0.5 0.0
1.5820894241333008 0.5 0.0
1.6119401454925537 0.5 0.0
1.6417908668518066 0.5 0.0
1.6716417074203491 0.5 0.0
1.701492428779602 0.5 0.0
1.731343150138855 0.5 0.0
1.761193871498108 0.5 0.0
1.7910445928573608 0.5 0.0
1.8208953142166138 0.5 0.0
1.8507460355758667 0.5 0.0
1.8805968761444092 0.5 0.0
1.910447597503662 0.5 0.0
1.940298318862915 0.5 0.0
1.970149040222168 0.5 0.0
1.7358819246292114 0.7499510645866394 0.0
0.2656642198562622 0.7486277222633362 0.0
0.49981194734573364 0.737183690071106 0.0
0.74151611328125 0.7359843254089355 0.0
0.9774143695831299 0.7371892929077148 0.0
1.201690912246704 0.7367381453514099 0.0
1.447761058807373 0.7383390665054321 0.0
1.8591958284378052 0.6421071290969849 0.0
0.14080412685871124 0.6421071290969849 0.0
1.588537573814392 0.6783608794212341 0.0
0.2553686201572418 0.6221352219581604 0.0
1.7466964721679688 0.6278358101844788 0.0
0.38199201226234436 0.6273008584976196 0.0
0.5013589859008789 0.6272794008255005 0.0
0.6207823157310486 0.6272526383399963 0.0
0.7401852607727051 0.627252459526062 0.0
0.8595882654190063 0.6272523999214172 0.0
0.9701492786407471 0.6212864518165588 0.0
1.0807102918624878 0.6272523999214172 0.0
1.2001131772994995 0.6272523999214172 0.0
1.3195161819458008 0.6272523999214172 0.0
1.4488563537597656 0.6310953497886658 0.0
1.9247323274612427 0.5706554055213928 0.0
0.07526770234107971 0.5706554055213928 0.0
1.5377081632614136 0.5910930037498474 0.0
1.6566967964172363 0.5934624075889587 0.0
1.8074009418487549 0.5708622932434082 0.0
0.1940300166606903 0.5737577676773071 0.0
1.0286364555358887 0.5665481686592102 0.0
1.14803946018219 0.5665481686592102 0.0
0.9116620421409607 0.5665481686592102 0.0
1.2674424648284912 0.5665481686592102 0.0
0.7922590970993042 0.5665481686592102 0.0
0.6728560328483582 0.5665482878684998 0.0
0.5534531474113464 0.5665481686592102 0.0
1.3892061710357666 0.5727682709693909 0.0
0.43402159214019775 0.5665869116783142 0.0
0.3146642744541168 0.5667200088500977 0.0
1.8656742572784424 0.5607567429542542 0.0
0.1343258023262024 0.5607567429542542 0.0
1.5970147848129272 0.5642029047012329 0.0
1.8783670663833618 0.7786769866943359 0.0
0.12163297086954117 0.7786769866943359 0.0
1.7164177894592285 0.562579333782196 0.0
1.4776118993759155 0.5620538592338562 0.0
1.5857784748077393 0.867691159248352 0.0
0.25373148918151855 0.5588531494140625 0.0
0.9701492786407471 0.5582930445671082 0.0
1.0895521640777588 0.5582930445671082 0.0
0.8507462739944458 0.5582930445671082 0.0
1.20895516872406 0.5582930445671082 0.0
0.7313433289527893 0.5582930445671082 0.0
1.3283581733703613 0.5582930445671082 0.0
0.6119403839111328 0.5582930445671082 0.0
0.49253740906715393 0.5582930445671082 0.0
0.37313446402549744 0.5582956075668335 0.0
0.36864349246025085 0.7376502752304077 0.0
0.602456271648407 0.7355343103408813 0.0
0.8441241383552551 0.7366551756858826 0.0
1.3355978727340698 0.7366551160812378 0.0
1.0895521640777588 0.7378703355789185 0.0
0.07051979005336761 0.6486480832099915 0.0
1.9294801950454712 0.6486480832099915 0.0
1.5086064338684082 0.6743985414505005 0.0
1.6785967350006104 0.6649783849716187 0.0
1.9543375968933105 0.5452249050140381 0.0
0.04566239193081856 0.5452249050140381 0.0
1.6567095518112183 0.5496091842651367 0.0
1.53738272190094 0.5491842031478882 0.0
0.91306072473526 0.8965699672698975 0.0
1.7782752513885498 0.5446287989616394 0.0
1.4163299798965454 0.5447981357574463 0.0
0.4287482798099518 0.8945969939231873 0.0
1.2610714435577393 0.8950135707855225 0.0
0.4313095211982727 0.6832783222198486 0.0
0.31561949849128723 0.6858259439468384 0.0
1.029850721359253 0.6781684160232544 0.0
0.9082015752792358 0.6848641633987427 0.0
1.1492537260055542 0.6781684160232544 0.0
0.7886138558387756 0.678956151008606 0.0
1.2709345817565918 0.684736430644989 0.0
0.6685023903846741 0.6868807673454285 0.0
1.4007169008255005 0.6702371835708618 0.0
0.5483440160751343 0.6792802214622498 0.0
0.19808045029640198 0.6887137293815613 0.0
1.797759771347046 0.6853783130645752 0.0
0.6811949610710144 0.8757594227790833 0.0
1.0189321041107178 0.8474968671798706 0.0
0.7922950983047485 0.8446238040924072 0.0
1.3765455484390259 0.8590760827064514 0.0
1.1571698188781738 0.8478953838348389 0.0
1.8954496383666992 0.5359624624252319 0.0
1.8360060453414917 0.5359931588172913 0.0
0.10455036163330078 0.5359624624252319 0.0
0.16417928040027618 0.5353734493255615 0.0
0.5530290007591248 0.8422092199325562 0.0
0.2832632064819336 0.5367912650108337 0.0
0.22469767928123474 0.5394234657287598 0.0
0.9405550956726074 0.5357381105422974 0.0
0.9997434020042419 0.5357381105422974 0.0
1.0600273609161377 0.5365630984306335 0.0
1.1191463470458984 0.5357381105422974 0.0
0.8802711367607117 0.5365630984306335 0.0
0.8211521506309509 0.5357381105422974 0.0
1.2385493516921997 0.5357381105422974 0.0
1.179430365562439 0.5365630984306335 0.0
0.7608681321144104 0.5365630984306335 0.0
0.7017492055892944 0.5357381105422974 0.0
1.2988333702087402 0.5365630984306335 0.0
1.357560396194458 0.5390686392784119 0.0
0.5823462605476379 0.5357381105422974 0.0
0.6414651870727539 0.5365630984306335 0.0
0.5220622420310974 0.5365630984306335 0.0
0.4629422128200531 0.535739541053772 0.0
0.3435409665107727 0.5357455015182495 0.0
0.4026572108268738 0.5365669131278992 0.0
0.21006634831428528 0.8590372204780579 0.0
1.7943172454833984 0.8627070188522339 0.0
0.06134982034564018 0.7191494703292847 0.0
1.938650131225586 0.7191494703292847 0.0
1.634666085243225 0.7584379315376282 0.0
0.3355695903301239 0.8387951850891113 0.0
1.537941336631775 0.7633647918701172 0.0
1.9670078754425049 0.574067234992981 0.0
0.032992132008075714 0.574067234992981 0.0
1.6862140893936157 0.5314788222312927 0.0
1.6272135972976685 0.5317342281341553 0.0
1.5077245235443115 0.5309156775474548 0.0
1.5668202638626099 0.5316618084907532 0.0
1.7466963529586792 0.5298213958740234 0.0
1.4473658800125122 0.5297333002090454 0.0
1.804386019706726 0.5275400876998901 0.0
1.9283779859542847 0.5282225012779236 0.0
1.8656879663467407 0.5267112255096436 0.0
0.13432854413986206 0.5271331071853638 0.0
0.07162196189165115 0.5282225012779236 0.0
0.25373148918151855 0.527070939540863 0.0
0.19419340789318085 0.5297109484672546 0.0
0.31349387764930725 0.5272363424301147 0.0
0.37313446402549744 0.5270199179649353 0.0
0.4329495429992676 0.5274069309234619 0.0
0.49253740906715393 0.5270196795463562 0.0
0.5523557066917419 0.5274024605751038 0.0
1.3898069858551025 0.5277745127677917 0.0
1.3283581733703613 0.5270196795463562 0.0
0.6119403839111328 0.5270196795463562 0.0
1.2685397863388062 0.5274024605751038 0.0
0.6717586517333984 0.5274024605751038 0.0
0.7313433289527893 0.5270196795463562 0.0
1.20895516872406 0.5270196795463562 0.0
0.7911616563796997 0.5274024605751038 0.0
0.8507462739944458 0.5270196795463562 0.0
1.1491369009017944 0.5274024605751038 0.0
1.0895521640777588 0.5270196795463562 0.0
0.9105646014213562 0.5274024605751038 0.0
0.9701492786407471 0.5270196795463562 0.0
1.0297338962554932 0.5274024605751038 0.0
1.4776118993759155 0.5259945392608643 0.0
1.597015619277954 0.5255197882652283 0.0
1.7164177894592285 0.525999903678894 0.0
1.6834615468978882 0.8477573990821838 0.0
1.5822722911834717 0.6086509227752686 0.0
0.20459823310375214 0.6270732283592224 0.0
1.8037469387054443 0.6209055185317993 0.0
0.09990309923887253 0.8589919805526733 0.0
1.9000968933105469 0.8589919805526733 0.0
1.75603187084198 0.5789161324501038 0.0
0.10896337777376175 0.5982794761657715 0.0
1.8910366296768188 0.5982794761657715 0.0
1.4950518608093262 0.605266273021698 0.0
1.7049394845962524 0.6007562279701233 0.0
1.4387125968933105 0.5775743722915649 0.0
1.489302158355713 0.851039469242096 0.0
0.15732239186763763 0.5961292386054993 0.0
1.8436260223388672 0.5944437384605408 0.0
0.4399496018886566 0.6259797215461731 0.0
1.022565245628357 0.6257523894309998 0.0
[...]
POINT_DATA 348
SCALARS Psi double
LOOKUP_TABLE default
1.08789847450592
1.0
1.0
1.0766684692566437
1.0877880062308758
1.0875451104726968
1.0891468084440867
1.0938728055775018
1.1033510760286016
1.1418217491790552
1.0
1.0
1.0
1.0
1.0
1.0
1.0
1.0
1.0
1.0
1.0
1.1342685463948647
1.0942751242409665
1.0844750354831831
1.0798819113724079
1.0777145537983461
1.076859054192028
1.0879812890902079
1.0867118737203678
1.0848223047273025
1.082420799961279
1.0794798105856396
1.0760237479536194
1.072121873732835
1.067867293876567
1.0633834607860395
1.0587584764216087
1.0540920620728194
1.0494630468909558
1.044956522337862
1.040624393395565
1.0364944248356243
1.0325996192880924
1.0289672844690565
1.0256109400015743
1.022518384511848
1.0196944968263215
1.0171381906735364
1.0148448620382098
1.012790584415186
1.0109687791865203
1.0093691715629332
1.0079826246132655
1.0067887562643616
1.0057803759758293
1.0049494028548855
1.0042890027962372
1.0037866646418079
1.003438299319076
1.003241199565995
1.0031934442639983
1.003291448178427
1.0035346311375264
1.0039285742433686
1.0044762170590074
1.005180781898269
1.0060462357461994
1.00708595290702
1.008306272464419
1.009714470003163
1.011316260526927
1.0131345528458302
1.0151740580343669
1.0174309700493605
1.0199346785756125
1.0226764930901489
1.0256555034855541
1.0288722148436176
1.032324068251578
1.0359903891850193
1.0398395377927858
1.0438338440270765
1.0479255363452395
1.0520543032562297
1.0561439082955968
1.060107257991799
1.0638381740187948
1.0672402127748204
1.070204758710059
1.0726291927367764
1.0744756476863009
1.0757491274576887
1.0764613444357807
1.0467867111097484
1.0518854974995304
1.0201199545674668
1.0058086488405242
1.0016730890732293
1.0036439487144646
1.0139159671409286
1.0733682570847223
1.082112746639535
1.0311074484642169
1.063534310992453
1.0566896057905448
1.0425530035947306
1.026824153505755
1.0156243623884156
1.0084497788026168
1.0043633587493617
1.00284578677168
1.003042130340358
1.0054010944040004
1.0102988518924467
1.0190457071421455
1.0762815970208386
1.0856765450456416
1.0292513434324897
1.0445295116975015
1.0659083918864354
1.0740341916067162
1.003069060013697
1.0045811566254808
1.0038189305409804
1.0086117114269166
1.0070315646224717
1.013238459437158
1.0232041804416916
1.015754090395849
1.0374860201990466
1.055478417970925
1.0719808302860097
1.0811616401265012
1.0372069616075086
1.0782438794756348
1.086358019489146
1.0536728172764962
1.0235734735172655
1.0130768691662633
1.065254610094948
1.003197052473012
1.0035798881935638
1.005165743127908
1.0063427129972866
1.0098477968555457
1.0118732770505454
1.0179114426599625
1.0300947466121229
1.0464794892479887
1.0356947694515581
1.0123546184430503
1.0031387426964238
1.007992742049628
1.0019375177825474
1.0902638557374298
1.080784317872814
1.0226367967517496
1.0445797931518368
1.076648652992472
1.0869297742305146
1.0454993564028192
1.0301804044160838
1.0004324779457143
1.0622233994945987
1.0182593122279584
1.0105238643737668
1.0014801910947344
1.0321300518410081
1.0494026491767945
1.00228669242287
1.0028325832447516
1.003548759332401
1.0056184817133795
1.0068375194662313
1.010584496684742
1.0140169693415872
1.0195846246205806
1.0716959174673113
1.0635402041394346
1.0033690888747586
1.0005515289266014
1.0019091530081186
1.004473798831791
1.0011770794818948
1.0738826786534974
1.068932668685392
1.0837058532098676
1.0778577788647918
1.0080518454116592
1.0609556648015992
1.0698224662033167
1.0035449095528766
1.0031568981133812
1.0033514355710715
1.0041283491621866
1.004548002359485
1.0061844091927705
1.0075849559331445
1.0055370177879104
1.0085721333130855
1.0117220718823776
1.010403315714881
1.013927017822793
1.0208731770420263
1.015833421637722
1.0270743050415645
1.0342521732263186
1.0515054291938835
1.0425620823574002
1.0395567065611535
1.0362112339411225
1.0980435920039142
1.088474765997733
1.0302226293673085
1.0266177484462187
1.0193764487887338
1.077798180624441
1.086996083617928
1.049814493464475
1.0417081050560855
1.027115335910244
1.0339262736258144
1.058149944639412
1.021127792383696
1.0654241818171066
1.0754785720491211
1.0715896555247881
1.0810291667557053
1.08590761361823
1.0655604214028822
1.0740717861641016
1.0562842958538792
1.047032371277884
1.038362659914787
1.0306044752124575
1.0238980839152612
1.0163204858116233
1.0121235364305834
1.0182792587005494
1.0089275203721781
1.013700677872184
1.0100775781267815
1.0065003902887608
1.0073102832350653
1.005304971057274
1.0047733073656624
1.0036843055083047
1.0039874088494392
1.0032948803011423
1.00319968993152
1.0240373575829007
1.037782711153776
1.0540276655971696
1.0247321279254595
1.0340237284795017
1.0720977954053785
1.0654174776673144
1.0766798885028093
1.069455570011368
1.0590427058656984
1.084187003858447
1.0751055971259473
1.02423406438806
1.0512398238739733
1.0196470454202302
1.0091319940554682
1.0790605294258215
1.070403240157365
1.0344440063442957
1.0027017717232876
1.0033116066653605
1.0039833364085748
1.0061442472404094
1.007590352498457
1.0117379897082421
1.0131967721968633
1.0208948219763407
1.0530712580073511
1.0269044500744033
1.0769456125866201
1.085352198225342
1.049032720072612
1.0329780828114223
1.0415769128202017
1.0531510677116236
1.0023830257252762
1.0026693188057274
1.003941891133647
1.005021975539447
1.0079147626328098
1.0097441058479255
1.014474178615146
1.0255108295520226
1.0411378679621541
1.1079720339973
1.0992860060360783
1.0766662395483484
1.0879553704915934
1.0607630654084121
1.0029734870243028
1.0032515757368847
1.0031706622359364
1.0612209313493608
1.0037527086784612
1.0043770222429043
1.0056003462581147
1.0053642798870404
1.0069008653554927
1.0083446693184093
1.0107080771129577
1.0101583380857004
1.0127990591731153
1.0154620518406459
1.0192794234283071
1.0265465388355413
1.0680748969585954
1.0320716499156908
1.0420100803880317
1.0488854790191875
1.0174362726640076
1.0457873258268333
1.030481826843186
1.0386471657761416
1.0014570165754397
1.021758311028916
1.0389659103822082
1.0837777927920316
1.0744046642618998
1.0002569121773368
1.028206227624292
1.0692428658326412
1.0781093475385586
1.0039401956853702
1.087521509319077
1.0771331067684862
1.087213640991449
1.0783251134840628
1.0690638753648487
1.0624278431759813
1.0620060165734506
1.0185975169905463
1.0010538007721421
1.016345308195827
1.0065916817527127
1.0761908357874146
1.0872104888628689
1.0528187222834893
1.0469710938931727

SCALARS Omega double
LOOKUP_TABLE default
4.100276591395478
-10.327730795436096
-14.2686495633977
0.13217857057184323
4.492515426469328
-2.6837945533080054
-4.473557660634816
3.542292223091489
1.0314781535197042
20.84264546033735
-8.18867520115414
-0.4094725223251324
-0.8985275653939356
-0.23421395942757287
-0.11369097867134664
-0.030612111190172972
-0.1111690093241563
-0.18643504131185828
-0.6569892800265393
-0.61103392569231
-6.115745385050907
17.9436705851095
3.5124636782393788
-1.0379081270118629
0.14534828365029565
0.03351225769563531
-0.3220314024801852
2.1113617298256533
1.0918367791702999
0.7143021740896293
0.5849518485730626
0.5327239424929837
0.5070780229781088
0.4781901953453399
0.44153688695108595
0.39741178056708737
0.3477326855174143
0.29624639566452265
0.24497892024275722
0.19618313349197217
0.1508090029246075
0.10952048225670064
0.07261347350639445
0.040333453579126176
0.01256970299308704
-0.011155351329583955
-0.03108181975535548
-0.04752459062711471
-0.06081139786221018
-0.07154132509423762
-0.08001355261642495
-0.08658310712087314
-0.09151389784999509
-0.09520530149861756
-0.09785149337483777
-0.09967300325199602
-0.1008131404369144
-0.10146383312963958
-0.10170958672120264
-0.10162686877438339
-0.10124796093657934
-0.10059290948863432
-0.09964829274356814
-0.09834303166584901
-0.0966122801244791
-0.09434272394968667
-0.09142625853745336
-0.08763222668431485
-0.08279843107413438
-0.07668844523080613
-0.06909527064200305
-0.059547317291035844
-0.04780290324996923
-0.03366497388546482
-0.016472751712209844
0.00391049911403441
0.027743081704726804
0.0553091205374541
0.08677693338047057
0.12203690492204346
0.16057613136083712
0.20168960504347655
0.24401350578081857
0.2859350888697351
0.32478694600395375
0.357601370093169
0.37954715493405566
0.38524800492438227
0.370655621967209
0.3300023908605305
0.2610341029399406
0.16510919313860264
0.06635078647453344
0.3151066787097472
0.33936277925755814
-0.11646412749211955
-0.1309118566744262
-0.10570544244128528
-0.1136653523741804
-0.12385496956468867
0.7178328075969763
0.8448250621504769
0.046919300114868036
0.4698816282080018
0.4081247471793539
0.16694960755828356
0.002897547175423211
-0.07395212630508802
-0.10007944145244792
-0.10519634428525544
-0.10385548595556243
-0.10230780758085031
-0.09843631749301643
-0.08460653283898814
-0.040685624540588064
0.30650981069104144
0.0948899177555941
0.05186250842975094
0.21730105434218655
0.4399174100869881
0.5280590909252991
-0.10168073739804287
-0.09715105264443594
-0.10234065547099985
-0.08372762102511055
-0.09659159909592245
-0.07320444395688314
-0.011171932718893909
-0.04893133638165032
0.11627850663337404
0.3207472807165929
0.40938443047305223
0.49085197054208307
0.13352109534942022
2.249060120061626
2.5274009286828596
0.31560108615767074
0.007244176733273237
-0.31878313544487835
0.434289483882017
-0.10231092622108628
-0.09981692806405693
-0.10036161191588938
-0.09157790155478389
-0.08711259275202854
-0.06873062135341253
-0.04655457285695186
0.04633405892939378
0.21351020278403676
0.040642050454335124
-0.14344316639389154
-0.11680355787946736
-0.12342029435512299
-0.10619346693417463
0.9676272328609631
0.574782840196633
-0.03102886952373669
0.23799457140299707
0.1404995144514265
0.4503874092275915
0.22190937382063405
0.06523625353621793
-0.09857906644495812
0.38752322420554225
-0.030069434434412
-0.41888398810739735
-0.15081365778136635
0.03255470394298655
0.27537492140949793
-0.10461616328969646
-0.10807518480278688
-0.10488149130466776
-0.11268902260609041
-0.10497213967852073
-0.11310599821853597
-0.08190653120131781
-0.07324263405403719
0.8361155033640434
0.6923071888276469
-0.20088340153445705
-0.09796264604997121
-0.1424951330113805
-0.2089131399848249
-0.11464430760698953
0.32160350023340567
0.3990826750053413
0.5432661528299667
0.518151606135861
-0.30164007038486446
0.37625886709555995
0.46768784739583646
-0.101884076201363
-0.1016707034968635
-0.10038421079556124
-0.09788440007489418
-0.10072930314616264
-0.09731626898273867
-0.0862062282972947
-0.09350530320949116
-0.09023276549149113
-0.07756313163718298
-0.07426981170368199
-0.05627397508185467
-0.02430827553348396
-0.05649859200342557
0.023020098190724186
0.08697762293821676
0.26890621586201435
0.17062922353079898
-0.6191909294917752
-0.5147470841169126
2.3294452251188407
1.9777754326562433
-0.01150973535536949
-0.2381694070022999
-0.12062838988453582
0.16690677657349973
-1.021732204132325
0.26552628033287606
0.18017280045769649
0.03920614717656998
0.10148348527303779
0.34662514697213376
-0.008566668969858368
0.39209163256962093
0.2186064418608208
0.3652351841192538
0.5338230402322753
0.712493998182007
0.4234154728675368
0.49727144014899277
0.32227161888160977
0.21880357136845355
0.12752218731498563
0.053812359521172914
-0.0016606519172531664
-0.04142765044564704
-0.06554031119323399
-0.04122242055253219
-0.08056138243522844
-0.06760899316182299
-0.08431587013587247
-0.0900782084111237
-0.09403104486061632
-0.0991924107517359
-0.09582606824291011
-0.09921886260678632
-0.10139610467727056
-0.10184407580575065
-0.10108332295891317
0.01396225084988161
0.1397994391224042
0.3076025263571037
-0.2638912731573826
0.0972591333910843
0.6218180596335224
0.5337798651870658
2.9039953778016727
2.155648207265878
0.38564602074543225
0.43159595953567526
0.4734073822376403
0.005161758004358697
0.30623706254319705
-0.024410384897528236
-0.2810106959149805
0.5921227818732322
0.5085895250222127
0.07552629316157135
-0.10322296887731315
-0.10472893921779595
-0.1008299381918662
-0.10385718316140848
-0.09299651549749474
-0.08998797085806813
-0.07147385155957253
-0.041828838957406474
0.3101615018917628
0.03413599037442264
1.2523254612617893
1.4785748227905087
0.2651621003446944
0.09036934035609645
0.1803309547058442
0.4136173790001852
-0.10537196689889464
-0.1043347552859235
-0.11016426596226604
-0.104445506324032
-0.11200116001573313
-0.09772746947777525
-0.09915262606974179
-0.028490043251691275
0.14423106337711641
5.598342302592003
5.403331021629116
-0.012855761299637555
2.0975690307106243
0.48885287031240954
-0.10265928973092045
-0.10312383634480517
-0.1013519460579831
0.4019968996810326
-0.09983805538478745
-0.10270297647368157
-0.10100566888395332
-0.09587048404946882
-0.09124247914476542
-0.09487819303128153
-0.08672286982800614
-0.07944071603574487
-0.06713690872751835
-0.06531830849044981
-0.042286178500929465
0.010999425356935048
0.48867830817110414
0.06039491839182732
0.16287202191327751
0.24370900185569086
-0.06902117037217109
0.22262509022680174
0.06938332803352561
0.14914127614684775
-0.10985028243037928
-0.16829937846686244
0.15224910600440533
0.3821709177778029
0.3751898652401847
-0.08900149604136116
0.03241088177723483
0.4400053669957668
0.5321896093696286
-0.13409298090489802
0.4668976837180051
0.011219789281061383
-0.5101373601020937
0.3408516063694704
1.0203185730901603
0.927159851839104
0.3733238666502777
-0.026222501830748715
-0.17256911002192618
-0.05296720420536132
-0.16617295466227047
0.11856080318489094
1.2482118262422146
0.5729328676154155
-1.2167721124874389

SCALARS Vx_analytic double
LOOKUP_TABLE default
4.100276591395478
-10.327730795436096
-14.2686495633977
0.13210637964743235
4.492515426469328
-2.6837945533080054
-4.473557660634816
3.542292223091489
1.0314781535197042
20.84264546033735
-8.18867520115414
-0.4094725223251324
-0.8985275653939356
-0.23421395942757287
-0.11369097867134664
-0.030612111190172972
-0.1111690093241563
-0.18643504131185828
-0.6569892800265391
-0.61103392569231
-6.115745385050907
17.9436705851095
3.5132646958976808
-1.0157705221643494
0.14755553987793596
0.034519698997090904
-0.3200761990904793
2.1113617298256533
1.0918367791702999
0.7143021740896293
0.5849518485730626
0.5327239424929837
0.5070780229781088
0.4781901953453399
0.44153688695108595
0.39741178056708737
0.3477326855174143
0.29624639566452265
0.24497892024275722
0.19618313349197217
0.1508090029246075
0.10952048225670064
0.07261347350639445
0.040333453579126176
0.01256970299308704
-0.011155351329583955
-0.03108181975535548
-0.04752459062711471
-0.06081139786221018
-0.07154132509423762
-0.08001355261642495
-0.08658310712087314
-0.09151389784999509
-0.09520530149861756
-0.09785149337483777
-0.09967300325199602
-0.1008131404369144
-0.10146383312963958
-0.10170958672120264
-0.10162686877438339
-0.1012478276505524
-0.10059294204194935
-0.099648455049383
-0.09834350190110262
-0.09661312131879787
-0.09434451871860927
-0.09142861870458846
-0.0876359704376922
-0.08280334278891087
-0.07669661379637992
-0.06910496134825608
-0.05956144851391192
-0.04782298754006008
-0.03367246039642101
-0.016485391452381
0.0038884095097767198
0.02772151838471178
0.05529747411442727
0.08676827989982513
0.12202034388196334
0.16057453055739263
0.20170954643103703
0.24406643450331839
0.2860015838006603
0.32489654469077445
0.3577128693745119
0.3797278569292115
0.38560071590681433
0.3710283160670888
0.33040741310235117
0.2613683054363735
0.16535185060587884
0.0663076675023759
0.3072890282179675
0.337170614520925
-0.11573714656013329
-0.1307994394801284
-0.10570535512391488
-0.1137278022994886
-0.1245635302413812
0.7269997387825683
0.8347617254271127
0.046007270506535504
0.46799101154746886
0.4105073469606059
0.16692146289099855
0.00313666882390395
-0.07378379845270697
-0.10001567391903336
-0.10518127231499198
-0.10385296486822279
-0.10231052803076877
-0.09846832164149061
-0.08473012843988897
-0.041016717923839346
0.30863173663674
0.10164156815107542
0.051537871129860226
0.2175443433717871
0.44228040793502016
0.5270414712543895
-0.10168036655234716
-0.0971593232266027
-0.10233728464411719
-0.08377000668667785
-0.09657556248298386
-0.07315791420022014
-0.011102327663138312
-0.04907507932942676
0.11625277765604808
0.3202582298912193
0.41159595865396337
0.4921555331208259
0.13340677181581656
2.2562437466215752
2.465884214837712
0.31620104478254824
0.007045941752137668
-0.3199528326109697
0.433530103413476
-0.10230954769970312
-0.09981884026472237
-0.10035371804727551
-0.09159326976904639
-0.08708221543359754
-0.06878611534530786
-0.046483303438578885
0.046411186946958914
0.21338885459220266
0.04151052174497428
-0.14299730792783846
-0.1167728863586371
-0.12376119510985874
-0.10620445994408902
0.8926160215205339
0.5831067609988766
-0.031782754694614966
0.23793720672139326
0.1418866574597034
0.4592261061066161
0.22203848098081894
0.06507796699727673
-0.0985795679485792
0.3884750777202461
-0.0301569424384329
-0.4175139088450221
-0.15089691667407923
0.032833074894913966
0.2746372744133511
-0.10461649295415061
-0.10806434632249184
-0.10490610193156943
-0.1126337190957543
-0.10508948353650296
-0.11291175052287239
-0.0822930062166063
-0.07287632478518634
0.8282370826629042
0.6979119990900493
-0.2006682243596272
-0.09797116703088621
-0.1424348295531192
-0.20985491953468152
-0.11468425977836726
0.32291998604920263
0.4004661603599023
0.545584767929108
0.5182087427677335
-0.30079309657106096
0.3759623336509286
0.46729198944466854
-0.10188333045339201
-0.10167020731103188
-0.10038502890796591
-0.09788823854675763
-0.10072764797374117
-0.09731253721591351
-0.08622901541256765
-0.0935173554825534
-0.09022641066298831
-0.07755275575139291
-0.07432039420404561
-0.05635099744410081
-0.024297351235120564
-0.05648791947704407
0.02301212412060308
0.08694559797827602
0.26873183033779446
0.17053225418634396
-0.6002055555256617
-0.5404004018209163
2.3324891610305825
1.9952133237033205
-0.014257358255227543
-0.23526584133959536
-0.12196078555212843
0.16889580909630506
-1.0064285288164794
0.26576571577975905
0.18013718698293749
0.03905086594865069
0.10135564260066415
0.3473621975745041
-0.00868431944419527
0.39328239635324497
0.21971500681182374
0.3663367858564188
0.534750676680881
0.7167242441775457
0.4231117937816311
0.4970539901841632
0.3221079645654225
0.21875178329698577
0.12751921381714687
0.05384393201624324
-0.0016322894206650437
-0.041511911550648616
-0.06558852477115446
-0.04119317859995713
-0.08058918605331032
-0.06759113277234918
-0.08430334731521982
-0.09009150162918708
-0.09402489191073202
-0.09918920923254854
-0.09583184572165167
-0.09922064608285137
-0.10139490965510446
-0.10184361020515215
-0.10108341549804783
0.013839356920070408
0.1397075657324397
0.3079784830519058
-0.26982869697735923
0.09687450540464772
0.6181302600909373
0.5377275131524923
2.803641245253308
1.98832100137835
0.3871698791886571
0.42802012396645356
0.47752159428388147
0.0047806028701592035
0.30695853228079995
-0.0246496014273702
-0.28242466287451595
0.5891893005314915
0.5124021151991427
0.07569952319075861
-0.10322246035633943
-0.10472312727565819
-0.1008427320100758
-0.10382419512380649
-0.09306743180288717
-0.08988417115472962
-0.07166214313221521
-0.04160908275382594
0.3094423826452481
0.03395512403854105
1.2650001535191373
1.46023396330119
0.26559395215650256
0.09019050064835224
0.18038623593960867
0.4148559104648656
-0.10536896235447753
-0.10433930005250139
-0.11013665881849326
-0.10448760294828204
-0.11189194719586594
-0.0979055117298294
-0.09883423321628879
-0.02803120503625901
0.1441547257621718
5.320999423523993
5.209113620693753
-0.01209332746357667
2.0940044611018793
0.48593036170383275
-0.10265782145731306
-0.10312143453262497
-0.10135356154035835
0.401091143835277
-0.09984342184098437
-0.10269515363957897
-0.10099102635381255
-0.09589104254706501
-0.09127527610625327
-0.09484443757977476
-0.08667060521092432
-0.07952305266772938
-0.0672486103505874
-0.06522696170436115
-0.04217311602229084
0.011130154359654879
0.48724962629616286
0.060495842167754825
0.16281780513829447
0.2434373959199385
-0.0694805866762069
0.22266343541757902
0.06925833770225523