# vtk DataFile Version 1.0
2D Simulation C++
ASCII
DATASET UNSTRUCTURED_GRID
FIELD FieldData 1
NODES 1 2 int
348 601

POINTS 348 double
0.0 0.5 0.0
0.0 1.0 0.0
2.0 1.0 0.0
2.0 0.5 0.0
0.0 0.528801679611206 0.0
0.0 0.564507782459259 0.0
0.0 0.6110168099403381 0.0
0.0 0.6721802353858948 0.0
0.0 0.7528436183929443 0.0
0.0 0.8593378663063049 0.0
0.16666941344738007 1.0 0.0
0.3333356976509094 1.0 0.0
0.5000020265579224 1.0 0.0
0.6666678786277771 1.0 0.0
0.8333337306976318 1.0 0.0
1.0 1.0 0.0
1.1666662693023682 1.0 0.0
1.3333321809768677 1.0 0.0
1.4999979734420776 1.0 0.0
1.6666642427444458 1.0 0.0
1.8333306312561035 1.0 0.0
2.0 0.8593378663063049 0.0
2.0 0.7528436183929443 0.0
2.0 0.6721802353858948 0.0
2.0 0.6110168099403381 0.0
2.0 0.564507782459259 0.0
2.0 0.528801679611206 0.0
0.029850948601961136 0.5 0.0
0.05970168858766556 0.5 0.0
0.08955242484807968 0.5 0.0
0.1194031685590744 0.5 0.0
0.14925390481948853 0.5 0.0
0.17910465598106384 0.5 0.0
0.20895539224147797 0.5 0.0
0.2388061285018921 0.5 0.0
0.2686568796634674 0.5 0.0
0.29850760102272034 0.5 0.0
0.32835835218429565 0.5 0.0
0.35820910334587097 0.5 0.0
0.3880598247051239 0.5 0.0
0.4179105758666992 0.5 0.0
0.44776129722595215 0.5 0.0
0.47761204838752747 0.5 0.0
0.5074627995491028 0.5 0.0
0.5373135209083557 0.5 0.0
0.5671642422676086 0.5 0.0
0.5970150232315063 0.5 0.0
0.6268657445907593 0.5 0.0
0.6567164659500122 0.5 0.0
0.6865672469139099 0.5 0.0
0.7164179682731628 0.5 0.0
0.7462686896324158 0.5 0.0
0.7761194705963135 0.5 0.0
0.8059701919555664 0.5 0.0
0.8358209133148193 0.5 0.0
0.865671694278717 0.5 0.0
0.89552241563797 0.5 0.0
0.9253731369972229 0.5 0.0
0.9552239179611206 0.5 0.0
0.9850746393203735 0.5 0.0
1.0149253606796265 0.5 0.0
1.0447760820388794 0.5 0.0
1.0746268033981323 0.5 0.0
1.1044776439666748 0.5 0.0
1.1343283653259277 0.5 0.0
1.1641790866851807 0.5 0.0
1.1940298080444336 0.5 0.0
1.2238805294036865 0.5 0.0
1.2537312507629395 0.5 0.0
1.2835819721221924 0.5 0.0
1.3134328126907349 0.5 0.0
1.3432835340499878 0.5 0.0
1.3731342554092407 0.5 0.0
1.4029849767684937 0.5 0.0
1.4328356981277466 0.5 0.0
1.4626864194869995 0.5 0.0
1.492537260055542 0.5 0.0
1.522387981414795 0.5 0.0
1.5522387027740479 0.5 0.0
1.5820894241333008 0.5 0.0
1.6119401454925537 0.5 0.0
1.6417908668518066 0.5 0.0
1.6716417074203491 0.5 0.0
1.701492428779602 0.5 0.0
1.731343150138855 0.5 0.0
1.761193871498108 0.5 0.0
1.7910445928573608 0.5 0.0
1.8208953142166138 0.5 0.0
1.8507460355758667 0.5 0.0
1.8805968761444092 0.5 0.0
1.910447597503662 0.5 0.0
1.940298318862915 0.5 0.0
1.970149040222168 0.5 0.0
1.7358819246292114 0.7499510645866394 0.0
0.2656642198562622 0.7486277222633362 0.0
0.49981194734573364 0.737183690071106 0.0
0.74151611328125 0.7359843254089355 0.0
0.9774143695831299 0.7371892929077148 0.0
1.201690912246704 0.7367381453514099 0.0
1.447761058807373 0.7383390665054321 0.0
1.8591958284378052 0.6421071290969849 0.0
0.14080412685871124 0.6421071290969849 0.0
1.588537573814392 0.6783608794212341 0.0
0.2553686201572418 0.6221352219581604 0.0
1.7466964721679688 0.6278358101844788 0.0
0.38199201226234436 0.6273008584976196 0.0
0.5013589859008789 0.6272794008255005 0.0
0.6207823157310486 0.6272526383399963 0.0
0.7401852607727051 0.627252459526062 0.0
0.8595882654190063 0.6272523999214172 0.0
0.9701492786407471 0.6212864518165588 0.0
1.0807102918624878 0.6272523999214172 0.0
1.2001131772994995 0.6272523999214172 0.0
1.3195161819458008 0.6272523999214172 0.0
1.4488563537597656 0.6310953497886658 0.0
1.9247323274612427 0.5706554055213928 0.0
0.07526770234107971 0.5706554055213928 0.0
1.5377081632614136 0.5910930037498474 0.0
1.6566967964172363 0.5934624075889587 0.0
1.8074009418487549 0.5708622932434082 0.0
0.1940300166606903 0.5737577676773071 0.0
1.0286364555358887 0.5665481686592102 0.0
1.14803946018219 0.5665481686592102 0.0
0.9116620421409607 0.5665481686592102 0.0
1.2674424648284912 0.5665481686592102 0.0
0.7922590970993042 0.5665481686592102 0.0
0.6728560328483582 0.5665482878684998 0.0
0.5534531474113464 0.5665481686592102 0.0
1.3892061710357666 0.5727682709693909 0.0
0.43402159214019775 0.5665869116783142 0.0
0.3146642744541168 0.5667200088500977 0.0
1.8656742572784424 0.5607567429542542 0.0
0.1343258023262024 0.5607567429542542 0.0
1.5970147848129272 0.5642029047012329 0.0
1.8783670663833618 0.7786769866943359 0.0
0.12163297086954117 0.7786769866943359 0.0
1.7164177894592285 0.562579333782196 0.0
1.4776118993759155 0.5620538592338562 0.0
1.5857784748077393 0.867691159248352 0.0
0.25373148918151855 0.5588531494140625 0.0
0.9701492786407471 0.5582930445671082 0.0
1.0895521640777588 0.5582930445671082 0.0
0.8507462739944458 0.5582930445671082 0.0
1.20895516872406 0.5582930445671082 0.0
0.7313433289527893 0.5582930445671082 0.0
1.3283581733703613 0.5582930445671082 0.0
0.6119403839111328 0.5582930445671082 0.0
0.49253740906715393 0.5582930445671082 0.0
0.37313446402549744 0.5582956075668335 0.0
0.36864349246025085 0.7376502752304077 0.0
0.602456271648407 0.7355343103408813 0.0
0.8441241383552551 0.7366551756858826 0.0
1.3355978727340698 0.7366551160812378 0.0
1.0895521640777588 0.7378703355789185 0.0
0.07051979005336761 0.6486480832099915 0.0
1.9294801950454712 0.6486480832099915 0.0
1.5086064338684082 0.6743985414505005 0.0
1.6785967350006104 0.6649783849716187 0.0
1.9543375968933105 0.5452249050140381 0.0
0.04566239193081856 0.5452249050140381 0.0
1.6567095518112183 0.5496091842651367 0.0
1.53738272190094 0.5491842031478882 0.0
0.91306072473526 0.8965699672698975 0.0
1.7782752513885498 0.5446287989616394 0.0
1.4163299798965454 0.5447981357574463 0.0
0.4287482798099518 0.8945969939231873 0.0
1.2610714435577393 0.8950135707855225 0.0
0.4313095211982727 0.6832783222198486 0.0
0.31561949849128723 0.6858259439468384 0.0
1.029850721359253 0.6781684160232544 0.0
0.9082015752792358 0.6848641633987427 0.0
1.1492537260055542 0.6781684160232544 0.0
0.7886138558387756 0.678956151008606 0.0
1.2709345817565918 0.684736430644989 0.0
0.6685023903846741 0.6868807673454285 0.0
1.4007169008255005 0.6702371835708618 0.0
0.5483440160751343 0.6792802214622498 0.0
0.19808045029640198 0.6887137293815613 0.0
1.797759771347046 0.6853783130645752 0.0
0.6811949610710144 0.8757594227790833 0.0
1.0189321041107178 0.8474968671798706 0.0
0.7922950983047485 0.8446238040924072 0.0
1.3765455484390259 0.8590760827064514 0.0
1.1571698188781738 0.8478953838348389 0.0
1.8954496383666992 0.5359624624252319 0.0
1.8360060453414917 0.5359931588172913 0.0
0.10455036163330078 0.5359624624252319 0.0
0.16417928040027618 0.5353734493255615 0.0
0.5530290007591248 0.8422092199325562 0.0
0.2832632064819336 0.5367912650108337 0.0
0.22469767928123474 0.5394234657287598 0.0
0.9405550956726074 0.5357381105422974 0.0
0.9997434020042419 0.5357381105422974 0.0
1.0600273609161377 0.5365630984306335 0.0
1.1191463470458984 0.5357381105422974 0.0
0.8802711367607117 0.5365630984306335 0.0
0.8211521506309509 0.5357381105422974 0.0
1.2385493516921997 0.5357381105422974 0.0
1.179430365562439 0.5365630984306335 0.0
0.7608681321144104 0.5365630984306335 0.0
0.7017492055892944 0.5357381105422974 0.0
1.2988333702087402 0.5365630984306335 0.0
1.357560396194458 0.5390686392784119 0.0
0.5823462605476379 0.5357381105422974 0.0
0.6414651870727539 0.5365630984306335 0.0
0.5220622420310974 0.5365630984306335 0.0
0.4629422128200531 0.535739541053772 0.0
0.3435409665107727 0.5357455015182495 0.0
0.4026572108268738 0.5365669131278992 0.0
0.21006634831428528 0.8590372204780579 0.0
1.7943172454833984 0.8627070188522339 0.0
0.06134982034564018 0.7191494703292847 0.0
1.938650131225586 0.7191494703292847 0.0
1.634666085243225 0.7584379315376282 0.0
0.3355695903301239 0.8387951850891113 0.0
1.537941336631775 0.7633647918701172 0.0
1.9670078754425049 0.574067234992981 0.0
0.032992132008075714 0.574067234992981 0.0
1.6862140893936157 0.5314788222312927 0.0
1.6272135972976685 0.5317342281341553 0.0
1.5077245235443115 0.5309156775474548 0.0
1.5668202638626099 0.5316618084907532 0.0
1.7466963529586792 0.5298213958740234 0.0
1.4473658800125122 0.5297333002090454 0.0
1.804386019706726 0.5275400876998901 0.0
1.9283779859542847 0.5282225012779236 0.0
1.8656879663467407 0.5267112255096436 0.0
0.13432854413986206 0.5271331071853638 0.0
0.07162196189165115 0.5282225012779236 0.0
0.25373148918151855 0.527070939540863 0.0
0.19419340789318085 0.5297109484672546 0.0
0.31349387764930725 0.5272363424301147 0.0
0.37313446402549744 0.5270199179649353 0.0
0.4329495429992676 0.5274069309234619 0.0
0.49253740906715393 0.5270196795463562 0.0
0.5523557066917419 0.5274024605751038 0.0
1.3898069858551025 0.5277745127677917 0.0
1.3283581733703613 0.5270196795463562 0.0
0.6119403839111328 0.5270196795463562 0.0
1.2685397863388062 0.5274024605751038 0.0
0.6717586517333984 0.5274024605751038 0.0
0.7313433289527893 0.5270196795463562 0.0
1.20895516872406 0.5270196795463562 0.0
0.7911616563796997 0.5274024605751038 0.0
0.8507462739944458 0.5270196795463562 0.0
1.1491369009017944 0.5274024605751038 0.0
1.0895521640777588 0.5270196795463562 0.0
0.9105646014213562 0.5274024605751038 0.0
0.9701492786407471 0.5270196795463562 0.0
1.0297338962554932 0.5274024605751038 0.0
1.4776118993759155 0.5259945392608643 0.0
1.597015619277954 0.5255197882652283 0.0
1.7164177894592285 0.525999903678894 0.0
1.6834615468978882 0.8477573990821838 0.0
1.5822722911834717 0.6086509227752686 0.0
0.20459823310375214 0.6270732283592224 0.0
1.8037469387054443 0.6209055185317993 0.0
0.09990309923887253 0.8589919805526733 0.0
1.9000968933105469 0.8589919805526733 0.0
1.75603187084198 0.5789161324501038 0.0
0.10896337777376175 0.5982794761657715 0.0
1.8910366296768188 0.5982794761657715 0.0
1.4950518608093262 0.605266273021698 0.0
1.7049394845962524 0.6007562279701233 0.0
1.4387125968933105 0.5775743722915649 0.0
1.489302158355713 0.851039469242096 0.0
0.15732239186763763 0.5961292386054993 0.0
1.8436260223388672 0.5944437384605408 0.0
0.4399496018886566 0.6259797215461731 0.0
1.022565245628357 0.6257523894309998 0.0
[...]
POINT_DATA 348
SCALARS Psi double
LOOKUP_TABLE default
1.0878984745191254
1.0
1.0
1.0766684692767214
1.0877880062439944
1.087545110485488
1.089146808456125
1.0938728055879505
1.1033510760362075
1.141821749182643
1.0
1.0
1.0
1.0
1.0
1.0
1.0
1.0
1.0
1.0
1.0
1.1342685463994324
1.094275124251449
1.0844750354982364
1.0798819113902356
1.0777145538176687
1.0768590542119685
1.0879812891035128
1.0867118737341823
1.084822304742019
1.082420799977266
1.0794798106032746
1.076023747973255
1.0721218737548135
1.0678672939011875
1.0633834608136064
1.0587584764523894
1.0540920621070418
1.0494630469288062
1.044956522379525
1.0406243934411723
1.0364944248852601
1.0325996193417935
1.0289672845268578
1.025610940063453
1.0225183845777237
1.019694496896069
1.017138190747034
1.0148448621152828
1.012790584495602
1.0109687792700108
1.009369171649247
1.0079826247021106
1.0067887563553883
1.0057803760686692
1.004949402949199
1.0042890028916638
1.003786664737941
1.00343829941551
1.0032411996623682
1.0031934443599597
1.0032914482735915
1.0035346312315094
1.003928574335841
1.0044762171496677
1.005180781986792
1.0060462358322833
1.0070859529904246
1.0083062725449488
1.009714470080607
1.0113162606011086
1.0131345529166433
1.0151740581017492
1.0174309701131772
1.0199346786358994
1.022676493146918
1.0256555035388262
1.028872214893465
1.0323240682981019
1.0359903892283555
1.0398395378330756
1.0438338440644876
1.047925536379961
1.052054303288474
1.0561439083255795
1.06010725801974
1.063838174044918
1.0672402127993816
1.0702047587332815
1.0726291927589013
1.0744756477075716
1.0757491274783189
1.0764613444560058
1.046786711124202
1.0518854975132321
1.0201199545987247
1.0058086488887557
1.0016730891272265
1.003643948761951
1.013915967172511
1.073368257103323
1.0821127466535951
1.0311074484947063
1.0635343110149615
1.056689605814883
1.0425530036294617
1.0268241535542713
1.0156243624505452
1.0084497788759381
1.0043633588298486
1.002845786855307
1.0030421304204382
1.0054010944770142
1.0102988519550333
1.0190457071911785
1.0762815970408062
1.0856765450592758
1.0292513434767396
1.0445295117304896
1.0659083919104304
1.07403419162641
1.0030690601053693
1.004581156711448
1.0038189306328675
1.0086117115027036
1.0070315647088148
1.0132384595127817
1.0232041805030445
1.015754090458007
1.0374860202447684
1.0554784180021237
1.0719808303078555
1.081161640142709
1.0372069616476154
1.0782438794848448
1.0863580194963058
1.0536728173063468
1.0235734735702144
1.0130768691733214
1.0652546101200775
1.0031970525662022
1.0035798882836784
1.0051657432183896
1.0063427130791651
1.0098477969376194
1.0118732771205554
1.0179114427291716
1.030094746665952
1.046479489286335
1.0356947694727443
1.0123546184823715
1.0031387427487082
1.007992742088885
1.0019375178342922
1.0902638557489879
1.0807843178895564
1.0226367967892092
1.04457979317746
1.0766486530124981
1.0869297742438129
1.0454993564379729
1.030180404463085
1.0004324779579206
1.0622233995209112
1.0182593122889194
1.010523864379726
1.0014801911044648
1.0321300518746526
1.0494026491995927
1.0022866924927296
1.0028325833132024
1.0035487593976815
1.0056184817787752
1.0068375195219788
1.0105844967401196
1.0140169693892522
1.0195846246663973
1.0716959174819334
1.0635402041572866
1.003369088888377
1.0005515289488591
1.0019091530295268
1.0044737988440464
1.001177079502086
1.073882678674893
1.0689326687089356
1.0837058532249866
1.0778577788831603
1.0080518454264833
1.0609556648303364
1.0698224662263003
1.0035449096481315
1.003156898208507
1.0033514356645572
1.0041283492527702
1.0045480024532738
1.006184409283732
1.0075849560142218
1.0055370178741783
1.008572133399644
1.0117220719634636
1.0104033157897603
1.0139270178909832
1.0208731771091124
1.0158334217120994
1.027074305100645
1.034252173277416
1.051505429229499
1.0425620824004427
1.0395567065651785
1.036211233945395
1.0980435920129255
1.088474766010376
1.0302226293851928
1.0266177484546395
1.0193764488108477
1.0777981806436803
1.0869960836306818
1.0498144934976348
1.0417081050944998
1.027115335961298
1.0339262736703296
1.0581499446680775
1.0211277924418067
1.0654241818423134
1.0754785720698306
1.0715896555472615
1.0810291667723524
1.0859076136322685
1.0655604214287275
1.0740717861846991
1.056284295886111
1.0470323713173024
1.0383626599620437
1.030604475267765
1.023898083978671
1.0163204858765271
1.0121235365025039
1.0182792587716283
1.0089275204505843
1.0137006779503663
1.0100775782110547
1.0065003903728629
1.0073102833243646
1.0053049711501665
1.0047733074546077
1.0036843056008415
1.0039874089445366
1.0032948803968378
1.003199690026397
1.0240373576375263
1.0377827111952838
1.054027665628032
1.0247321279325554
1.0340237285179303
1.0720977954237523
1.0654174776891838
1.07667988850611
1.0694555700153952
1.0590427058922163
1.0841870038726185
1.0751055971457655
1.024234064435467
1.051239823902762
1.0196470454763813
1.0091319940668644
1.0790605294424036
1.0704032401788424
1.0344440063857976
1.0027017718056126
1.0033116067479293
1.0039833364859518
1.006144247318215
1.0075903525667775
1.0117379897765824
1.0131967722553885
1.020894822031954
1.0530712580349924
1.0269044501232127
1.0769456126011812
1.0853521982363057
1.0490327201047296
1.0329780828545172
1.0415769128569312
1.0531510677322082
1.0023830257969313
1.0026693188736604
1.0039418912020133
1.0050219756013299
1.0079147626950011
1.0097441059004764
1.0144741786672227
1.0255108295924464
1.041137867990735
1.1079720340033052
1.0992860060440386
1.0766662395684292
1.0879553705047915
1.060763065427948
1.0029734871140832
1.0032515758263043
1.0031706623234977
1.0612209313757022
1.003752708764124
1.0043770223308046
1.00560034634418
1.0053642799675728
1.00690086543242
1.008344669399256
1.010708077190003
1.0101583381553543
1.0127990592381528
1.0154620519098525
1.0192794234923435
1.02654653889026
1.0680748969809837
1.0320716499646858
1.0420100804276953
1.0488854790537614
1.0174362727055877
1.0457873258626729
1.0304818268910927
1.0386471658090601
1.0014570166130712
1.0217583110472213
1.0389659104185476
1.0837777928067716
1.0744046642826688
1.0002569121850784
1.0282062276636472
1.0692428658554247
1.0781093475562633
1.0039401957154606
1.0875215093320745
1.0771331067882273
1.0872136410040705
1.0783251135027392
1.0690638753753157
1.062427843188304
1.062006016600335
1.0185975170523287
1.0010538007784013
1.0163453082510923
1.0065916817847778
1.0761908358077785
1.0872104888763896
1.0528187222847742
1.0469710938945995

SCALARS Omega double
LOOKUP_TABLE default
4.100276591038222
-10.327730795826758
-14.268649564064377
0.1321785704685378
4.492515426391487
-2.683794553731936
-4.473557660958761
3.5422922228852514
1.031478153545852
20.84264546035833
-8.188675201569778
-0.4094725229586104
-0.8985275664631227
-0.23421396112586618
-0.1136909807100344
-0.030612113327443496
-0.11116901116313392
-0.18643504283536025
-0.6569892811031157
-0.6110339263330157
-6.115745385506274
17.943670584803677
3.5124636782751484
-1.0379081269990837
0.14534828379199363
0.03351225765197763
-0.3220314021987529
2.1113617295834652
1.0918367789588264
0.7143021739136562
0.5849518484447754
0.5327239424223211
0.5070780229737033
0.478190195415634
0.44153688710354827
0.3974117808098274
0.34773268585748107
0.2962463961081556
0.24497892079495628
0.1961831341580508
0.15080900370812983
0.10952048315987031
0.07261347452987676
0.040333454723921316
0.012569704258248188
-0.011155349946781927
-0.031081818259127824
-0.04752458902103321
-0.060811396151618326
-0.07154132328640882
-0.08001355071972319
-0.08658310514259712
-0.09151389579880977
-0.09520529938524881
-0.09785149121057651
-0.09967300104669316
-0.10081313820112518
-0.10146383087576903
-0.10170958446154034
-0.10162686651936857
-0.10124795869624628
-0.10059290727451972
-0.09964829056727725
-0.09834302953683313
-0.09661227805120523
-0.09434272194181587
-0.09142625660389496
-0.08763222483165131
-0.08279842930743314
-0.07668844355602422
-0.06909526906397805
-0.05954731581204375
-0.047802901870787055
-0.033664972610133785
-0.016472750538251358
0.003910500187873156
0.027743082679681678
0.05530912141652004
0.08677693416750834
0.12203690562196871
0.16057613197852053
0.20168960558458374
0.24401350625152493
0.2859350892768655
0.32478694635418526
0.3576013703931135
0.3795471551901025
0.38524800514367835
0.370655622155359
0.33000239102301643
0.26103410308172637
0.16510919326224321
0.06635078656146569
0.3151066785270914
0.3393627790586457
-0.11646412736881644
-0.13091185626244434
-0.10570544195394983
-0.11366535202130437
-0.12385496950618338
0.7178328076526642
0.8448250620126901
0.046919300335468914
0.469881628293692
0.4081247473450205
0.1669496079763944
0.0028975479681182556
-0.07395212514619724
-0.1000794399979178
-0.1051963426456821
-0.10385548422540915
-0.10230780597384054
-0.0984363160881498
-0.08460653172232693
-0.04068562379110975
0.30650981080233564
0.0948899175436073
0.051862509110761366
0.21730105473408806
0.4399174102819892
0.5280590909297167
-0.10168073533159203
-0.09715105075360161
-0.10234065338726285
-0.08372761943607572
-0.09659159716205547
-0.0732044423253093
-0.011171931495730281
-0.04893133519097013
0.11627850740412406
0.32074728106324846
0.409384430624826
0.4908519704305474
0.13352109594336142
2.2490601198512885
2.527400928457101
0.31560108649135826
0.007244177676006718
-0.3187831360900118
0.43428948404981593
-0.10231092409648243
-0.09981692603964239
-0.10036160985857366
-0.09157789977896265
-0.08711259092985195
-0.06873061992556762
-0.04655457140213487
0.04633405993950233
0.21351020334218215
0.04064205039496287
-0.14344316612882277
-0.11680355740875589
-0.12342029416393158
-0.10619346650300195
0.9676272326596632
0.5747828402365377
-0.03102886914456756
0.2379945715499123
0.140499514561467
0.45038740898784624
0.2219093742927195
0.06523625432335732
-0.09857906782110569
0.3875232244606486
-0.030069433255497085
-0.4188839888066494
-0.15081365895539334
0.0325547042616709
0.27537492146555825
-0.10461616212448968
-0.1080751836890222
-0.10488149026258117
-0.11268902153101312
-0.10497213890131625
-0.11310599740407552
-0.0819065305737901
-0.07324263343693824
0.8361155032419143
0.6923071888180334
-0.20088340253540296
-0.09796264693477513
-0.14249513382655166
-0.20891314083514087
-0.11464430846840674
0.3216035003780381
0.39908267519865204
0.5432661526725674
0.5181516060923127
-0.301640071015757
0.37625886737292763
0.46768784749836595
-0.10188407398750705
-0.10167070129260389
-0.10038420864546899
-0.09788439801468328
-0.10072930097038509
-0.09731626688439511
-0.0862062265244955
-0.09350530128125131
-0.09023276351843738
-0.07756312982064424
-0.07426981011501467
-0.05627397369038124
-0.02430827412312369
-0.056498590381272064
0.023020099366587773
0.08697762387958871
0.26890621634505407
0.1706292242341688
-0.6191909299109023
-0.5147470845614354
2.329445224968664
1.9777754326131394
-0.011509735539460322
-0.23816940745878365
-0.12062839005269392
0.16690677665303608
-1.021732204422093
0.26552628075979573
0.18017280102114172
0.03920614808408981
0.10148348600017118
0.3466251472873208
-0.008566667863152659
0.39209163280228054
0.21860644198880208
0.36523518428901847
0.5338230401292375
0.7124939979795913
0.42341547305759125
0.4972714401765846
0.32227161926433545
0.2188035719654767
0.12752218814459168
0.053812360588269575
-0.0016606506118003845
-0.0414276491441413
-0.06554030968824247
-0.041222419023179906
-0.08056138073846746
-0.06760899142563415
-0.08431586822424934
-0.09007820654454335
-0.09403104280480634
-0.09919240859544347
-0.09582606622922679
-0.09921886048291041
-0.10139610246094956
-0.10184407357799716
-0.10108332076032005
0.013962251858666555
0.13979943976962242
0.3076025267268895
-0.263891273646531
0.0972591339037828
0.6218180596066574
0.5337798653111864
2.9039953775208778
2.1556482068859597
0.3856460209929488
0.4315959593703788
0.47340738234052254
0.005161758752620958
0.3062370628292949
-0.024410383880181998
-0.2810106965787128
0.5921227817882325
0.5085895251555356
0.0755262937660246
-0.10322296719761583
-0.10472893752093672
-0.1008299366580175
-0.1038571815836882
-0.09299651421917528
-0.08998796952965918
-0.07147385054407503
-0.04182883796919838
0.31016150211524474
0.0341359911985534
1.2523254612093857
1.478574822612057
0.2651621007317322
0.09036934102547206
0.18033095520950687
0.413617379031057
-0.10537196566648016
-0.10433475417650591
-0.11016426481929598
-0.10444550536462766
-0.11200115900544887
-0.09772746875222242
-0.09915262530255317
-0.028490042757547924
0.1442310635829348
5.598342302470056
5.403331021448042
-0.01285576116764915
2.0975690304975414
0.4888528703036513
-0.10265928774716664
-0.10312383437236004
-0.1013519441494246
0.40199689988231907
-0.09983805353105175
-0.10270297453726188
-0.10100566699231886
-0.09587048235106994
-0.09124247754900233
-0.09487819128575176
-0.08672286818460972
-0.0794407146522264
-0.06713690747320583
-0.06531830706862106
-0.0422861772220189
0.01099942637003181
0.48867830825706104
0.06039491924359989
0.16287202249708183
0.24370900229472767
-0.0690211699119178
0.22262509072437017
0.06938332885575581
0.14914127650126696
-0.10985028263503095
-0.16829937872499895
0.15224910647822937
0.3821709176141936
0.37518986536848015
-0.08900149758259927
0.03241088227638866
0.44000536716591976
0.5321896093103882
-0.134092981194178
0.4668976834561529
0.01121978938217241
-0.5101373603434
0.3408516064583355
1.0203185728670885
0.9271598516644541
0.37332386692346964
-0.02622250061700548
-0.17256911150935159
-0.052967203263369005
-0.16617295483091143
0.11856080330379976
1.248211826020907
0.5729328673235252
-1.2167721129836577

SCALARS Vx_analytic double
LOOKUP_TABLE default
4.100276591038222
-10.327730795826758
-14.268649564064377
0.13210637954438442
4.492515426391487
-2.683794553731936
-4.473557660958761
3.5422922228852514
1.031478153545852
20.84264546035833
-8.188675201569778
-0.4094725229586104
-0.8985275664631227
-0.23421396112586618
-0.1136909807100344
-0.030612113327443496
-0.11116901116313392
-0.18643504283536025
-0.6569892811031155
-0.6110339263330157
-6.115745385506274
17.943670584803677
3.513264695923467
-1.0157705221680646
0.14755554001757226
0.03451969895442145
-0.3200761988114422
2.1113617295834652
1.0918367789588264
0.7143021739136562
0.5849518484447754
0.5327239424223211
0.5070780229737033
0.478190195415634
0.44153688710354827
0.3974117808098274
0.34773268585748107
0.2962463961081556
0.24497892079495628
0.1961831341580508
0.15080900370812983
0.10952048315987031
0.07261347452987676
0.040333454723921316
0.012569704258248188
-0.011155349946781927
-0.031081818259127824
-0.04752458902103321
-0.060811396151618326
-0.07154132328640882
-0.08001355071972319
-0.08658310514259712
-0.09151389579880977
-0.09520529938524881
-0.09785149121057651
-0.09967300104669316
-0.10081313820112518
-0.10146383087576903
-0.10170958446154034
-0.10162686651936857
-0.10124782541023455
-0.10059293982790758
-0.09964845287323361
-0.09834349977227921
-0.0966131192457768
-0.09434451671104525
-0.09142861677140182
-0.08763596858543606
-0.08280334102266901
-0.07669661212209532
-0.06910495977079005
-0.059561447035544744
-0.04782298616152076
-0.033672459121590975
-0.01648539027893527
0.003888410583064093
0.02772151935909873
0.0552974749929356
0.08676828068632589
0.12202034458135258
0.16057453117457562
0.20170954697168242
0.2440664349736058
0.28600158420736926
0.32489654504062787
0.3577128696741604
0.37972785718499696
0.3856007161257394
0.3710283162548784
0.33040741326452383
0.26136830557789065
0.16535185072938008
0.06630766758957805
0.30728902804337527
0.33717061432576423
-0.11573714643115171
-0.13079943906426014
-0.10570535463635068
-0.1137278019496251
-0.1245635301852311
0.7269997388369409
0.8347617252945803
0.0460072707233276
0.46799101163631196
0.4105073471248551
0.16692146331298488
0.0031366696208773377
-0.07378379728949679
-0.10001567246152424
-0.10518127067363486
-0.10385296313762885
-0.10231052642478941
-0.09846832023917547
-0.08473012732695573
-0.041016717178474014
0.3086317367465807
0.10164156793487945
0.051537871807417986
0.2175443437605829
0.4422804081274778
0.5270414712597943
-0.10168036448608721
-0.0971593213371644
-0.10233728255978713
-0.08377000510005601
-0.0965755605478276
-0.07315791256672731
-0.011102326437664676
-0.049075078141968626
0.11625277842908031
0.3202582302396424
0.4115959588039441
0.4921555330086496
0.13340677240705331
2.256243746445056
2.465884214606187
0.3162010451140865
0.0070459426919832245
-0.3199528332546164
0.43353010358258764
-0.10230954557486922
-0.09981883824097047
-0.10035371598905327
-0.09159326799477664
-0.08708221360986682
-0.06878611391970683
-0.04648330198171739
0.04641118795926602
0.21338885515225264
0.04151052169169538
-0.1429973076567932
-0.11677288588539489
-0.12376119492254406
-0.10620445951412584
0.8926160213417782
0.583106761035067
-0.03178275431918348
0.23793720686619976
0.14188665756877505
0.45922610586054763
0.22203848145078245
0.06507796778201513
-0.09857956932427067
0.38847507797391934
-0.030156941261615028
-0.4175139095435883
-0.1508969178490087
0.032833075219038076
0.2746372744733087
-0.1046164917892739
-0.10806434520732805
-0.10490610089170296
-0.1126337180176735
-0.10508948276320813
-0.11291174970380284
-0.08229300559369315
-0.07287632416279545
0.8282370825427244
0.6979119990812681
-0.2006682253577168
-0.09797116791599432
-0.14243483036605709
-0.20985492038576425
-0.11468426064119486
0.32291998619286727
0.40046616055194456
0.5455847677702476
0.518208742724262
-0.3007930971981295
0.37596233392892314
0.46729198954775025
-0.10188332823939622
-0.10167020510675531
-0.10038502675822054
-0.09788823648730888
-0.10072764579769872
-0.09731253511718735
-0.08622901364126183
-0.09351735355547343
-0.09022640868942418
-0.07755275393424782
-0.07432039261718618
-0.056350996054705595
-0.024297349823998695
-0.05648791785417177
0.023012125297292962
0.08694559892044494
0.26873183082153285
0.17053225489049628
-0.6002055559425548
-0.5404004022476726
2.3324891608689486
1.9952133236785206
-0.01425735843833863
-0.23526584179232596
-0.12196078572181186
0.16889580917477195
-1.0064285291118065
0.26576571620510786
0.18013718754462513
0.03905086685425381
0.10135564332600255
0.34736219788817346
-0.008684318339432272
0.39328239658460284
0.21971500693903187
0.3663367860252565
0.5347506765773172
0.7167242439720835
0.4231117939722478
0.4970539902120426
0.32210796494872057
0.21875178389466068
0.1275192146474035
0.053843933084028996
-0.0016322881145626462
-0.041511910250864315
-0.06558852326752876
-0.04119317706997355
-0.08058918435780237
-0.0675911310356106
-0.08430334540311188
-0.09009149976356777
-0.09402488985454543
-0.09918920707597029
-0.09583184370869649
-0.09922064395937971
-0.10139490743861085
-0.10184360797732712
-0.10108341329955794
0.013839357927270039
0.13970756637812623
0.3079784834202753
-0.26982869746790006
0.09687450591384102
0.6181302600668253
0.5377275132736732
2.8036412449626726
1.9883210010639505
0.3871698794338906
0.428020123803418
0.4775215943838627
0.004780603614543273
0.3069585325642626
-0.024649600413344366
-0.2824246635386772
0.5891893004484311
0.5124021153304209
0.07569952379930137
-0.10322245867688341
-0.10472312557781197
-0.10084273047808534
-0.1038241935438201
-0.0930674305278158
-0.08988416982293229
-0.07166214212090996
-0.04160908176148053
0.30944238287220127
0.033955124859793136
1.265000153470437
1.46023396312616
0.26559395254128837
0.09019050131488641
0.18038623644087076
0.4148559104946279
-0.1053689611215376
-0.1043392989444993
-0.11013665767310254
-0.10448760199204153
-0.11189194618145873
-0.097905511008647
-0.09883423244365556
-0.028031204536188636
0.1441547259728058
5.32099942342909
5.209113620534817
-0.01209332733224362
2.09400446088628
0.4859303616991737
-0.10265781947337786
-0.10312143255972352
-0.10135355963244864
0.40109114403852686
-0.09984341998837785
-0.10269515170210909
-0.10099102446083673
-0.09589104085065256
-0.09127527451282236
-0.09484443583227915
-0.08667060356536176
-0.07952305128726081
-0.06724860909951735
-0.06522696027981077
-0.04217311474063003
0.011130155375824666
0.48724962638392505
0.06049584302241523
0.16281780572493268
0.24343739636144973
-0.06948058622105104
0.22266343591394722