# vtk DataFile Version 1.0
2D Simulation C++
ASCII
DATASET UNSTRUCTURED_GRID
FIELD FieldData 1
NODES 1 2 int
348 601

POINTS 348 double
0.0 0.5 0.0
0.0 1.0 0.0
2.0 1.0 0.0
2.0 0.5 0.0
0.0 0.528801679611206 0.0
0.0 0.564507782459259 0.0
0.0 0.6110168099403381 0.0
0.0 0.6721802353858948 0.0
0.0 0.7528436183929443 0.0
0.0 0.8593378663063049 0.0
0.16666941344738007 1.0 0.0
0.3333356976509094 1.0 0.0
0.5000020265579224 1.0 0.0
0.6666678786277771 1.0 0.0
0.8333337306976318 1.0 0.0
1.0 1.0 0.0
1.1666662693023682 1.0 0.0
1.3333321809768677 1.0 0.0
1.4999979734420776 1.0 0.0
1.6666642427444458 1.0 0.0
1.8333306312561035 1.0 0.0
2.0 0.8593378663063049 0.0
2.0 0.7528436183929443 0.0
2.0 0.6721802353858948 0.0
2.0 0.6110168099403381 0.0
2.0 0.564507782459259 0.0
2.0 0.528801679611206 0.0
0.029850948601961136 0.5 0.0
0.05970168858766556 0.5 0.0
0.08955242484807968 0.5 0.0
0.1194031685590744 0.5 0.0
0.14925390481948853 0.5 0.0
0.17910465598106384 0.5 0.0
0.20895539224147797 0.5 0.0
0.2388061285018921 0.5 0.0
0.2686568796634674 0.5 0.0
0.29850760102272034 0.5 0.0
0.32835835218429565 0.5 0.0
0.35820910334587097 0.5 0.0
0.3880598247051239 0.5 0.0
0.4179105758666992 0.5 0.0
0.44776129722595215 0.5 0.0
0.47761204838752747 0.5 0.0
0.5074627995491028 0.5 0.0
0.5373135209083557 0.5 0.0
0.5671642422676086 0.5 0.0
0.5970150232315063 0.5 0.0
0.6268657445907593 0.5 0.0
0.6567164659500122 0.5 0.0
0.6865672469139099 0.5 0.0
0.7164179682731628 0.5 0.0
0.7462686896324158 0.5 0.0
0.7761194705963135 0.5 0.0
0.8059701919555664 0.5 0.0
0.8358209133148193 0.5 0.0
0.865671694278717 0.5 0.0
0.89552241563797 0.5 0.0
0.9253731369972229 0.5 0.0
0.9552239179611206 0.5 0.0
0.9850746393203735 0.5 0.0
1.0149253606796265 0.5 0.0
1.0447760820388794 0.5 0.0
1.0746268033981323 0.5 0.0
1.1044776439666748 0.5 0.0
1.1343283653259277 0.5 0.0
1.1641790866851807 0.5 0.0
1.1940298080444336 0.5 0.0
1.2238805294036865 0.5 0.0
1.2537312507629395 0.5 0.0
1.2835819721221924 0.5 0.0
1.3134328126907349 0.5 0.0
1.3432835340499878 0.5 0.0
1.3731342554092407 0.5 0.0
1.4029849767684937 0.5 0.0
1.4328356981277466 0.5 0.0
1.4626864194869995 0.5 0.0
1.492537260055542 0.5 0.0
1.522387981414795 0.5 0.0
1.5522387027740479 0.5 0.0
1.5820894241333008 0.5 0.0
1.6119401454925537 0.5 0.0
1.6417908668518066 0.5 0.0
1.6716417074203491 0.5 0.0
1.701492428779602 0.5 0.0
1.731343150138855 0.5 0.0
1.761193871498108 0.5 0.0
1.7910445928573608 0.5 0.0
1.8208953142166138 0.5 0.0
1.8507460355758667 0.5 0.0
1.8805968761444092 0.5 0.0
1.910447597503662 0.5 0.0
1.940298318862915 0.5 0.0
1.970149040222168 0.5 0.0
1.7358819246292114 0.7499510645866394 0.0
0.2656642198562622 0.7486277222633362 0.0
0.49981194734573364 0.737183690071106 0.0
0.74151611328125 0.7359843254089355 0.0
0.9774143695831299 0.7371892929077148 0.0
1.201690912246704 0.7367381453514099 0.0
1.447761058807373 0.7383390665054321 0.0
1.8591958284378052 0.6421071290969849 0.0
0.14080412685871124 0.6421071290969849 0.0
1.588537573814392 0.6783608794212341 0.0
0.2553686201572418 0.6221352219581604 0.0
1.7466964721679688 0.6278358101844788 0.0
0.38199201226234436 0.6273008584976196 0.0
0.5013589859008789 0.6272794008255005 0.0
0.6207823157310486 0.6272526383399963 0.0
0.7401852607727051 0.627252459526062 0.0
0.8595882654190063 0.6272523999214172 0.0
0.9701492786407471 0.6212864518165588 0.0
1.0807102918624878 0.6272523999214172 0.0
1.2001131772994995 0.6272523999214172 0.0
1.3195161819458008 0.6272523999214172 0.0
1.4488563537597656 0.6310953497886658 0.0
1.9247323274612427 0.5706554055213928 0.0
0.07526770234107971 0.5706554055213928 0.0
1.5377081632614136 0.5910930037498474 0.0
1.6566967964172363 0.5934624075889587 0.0
1.8074009418487549 0.5708622932434082 0.0
0.1940300166606903 0.5737577676773071 0.0
1.0286364555358887 0.5665481686592102 0.0
1.14803946018219 0.5665481686592102 0.0
0.9116620421409607 0.5665481686592102 0.0
1.2674424648284912 0.5665481686592102 0.0
0.7922590970993042 0.5665481686592102 0.0
0.6728560328483582 0.5665482878684998 0.0
0.5534531474113464 0.5665481686592102 0.0
1.3892061710357666 0.5727682709693909 0.0
0.43402159214019775 0.5665869116783142 0.0
0.3146642744541168 0.5667200088500977 0.0
1.8656742572784424 0.5607567429542542 0.0
0.1343258023262024 0.5607567429542542 0.0
1.5970147848129272 0.5642029047012329 0.0
1.8783670663833618 0.7786769866943359 0.0
0.12163297086954117 0.7786769866943359 0.0
1.7164177894592285 0.562579333782196 0.0
1.4776118993759155 0.5620538592338562 0.0
1.5857784748077393 0.867691159248352 0.0
0.25373148918151855 0.5588531494140625 0.0
0.9701492786407471 0.5582930445671082 0.0
1.0895521640777588 0.5582930445671082 0.0
0.8507462739944458 0.5582930445671082 0.0
1.20895516872406 0.5582930445671082 0.0
0.7313433289527893 0.5582930445671082 0.0
1.3283581733703613 0.5582930445671082 0.0
0.6119403839111328 0.5582930445671082 0.0
0.49253740906715393 0.5582930445671082 0.0
0.37313446402549744 0.5582956075668335 0.0
0.36864349246025085 0.7376502752304077 0.0
0.602456271648407 0.7355343103408813 0.0
0.8441241383552551 0.7366551756858826 0.0
1.3355978727340698 0.7366551160812378 0.0
1.0895521640777588 0.7378703355789185 0.0
0.07051979005336761 0.6486480832099915 0.0
1.9294801950454712 0.6486480832099915 0.0
1.5086064338684082 0.6743985414505005 0.0
1.6785967350006104 0.6649783849716187 0.0
1.9543375968933105 0.5452249050140381 0.0
0.04566239193081856 0.5452249050140381 0.0
1.6567095518112183 0.5496091842651367 0.0
1.53738272190094 0.5491842031478882 0.0
0.91306072473526 0.8965699672698975 0.0
1.7782752513885498 0.5446287989616394 0.0
1.4163299798965454 0.5447981357574463 0.0
0.4287482798099518 0.8945969939231873 0.0
1.2610714435577393 0.8950135707855225 0.0
0.4313095211982727 0.6832783222198486 0.0
0.31561949849128723 0.6858259439468384 0.0
1.029850721359253 0.6781684160232544 0.0
0.9082015752792358 0.6848641633987427 0.0
1.1492537260055542 0.6781684160232544 0.0
0.7886138558387756 0.678956151008606 0.0
1.2709345817565918 0.684736430644989 0.0
0.6685023903846741 0.6868807673454285 0.0
1.4007169008255005 0.6702371835708618 0.0
0.5483440160751343 0.6792802214622498 0.0
0.19808045029640198 0.6887137293815613 0.0
1.797759771347046 0.6853783130645752 0.0
0.6811949610710144 0.8757594227790833 0.0
1.0189321041107178 0.8474968671798706 0.0
0.7922950983047485 0.8446238040924072 0.0
1.3765455484390259 0.8590760827064514 0.0
1.1571698188781738 0.8478953838348389 0.0
1.8954496383666992 0.5359624624252319 0.0
1.8360060453414917 0.5359931588172913 0.0
0.10455036163330078 0.5359624624252319 0.0
0.16417928040027618 0.5353734493255615 0.0
0.5530290007591248 0.8422092199325562 0.0
0.2832632064819336 0.5367912650108337 0.0
0.22469767928123474 0.5394234657287598 0.0
0.9405550956726074 0.5357381105422974 0.0
0.9997434020042419 0.5357381105422974 0.0
1.0600273609161377 0.5365630984306335 0.0
1.1191463470458984 0.5357381105422974 0.0
0.8802711367607117 0.5365630984306335 0.0
0.8211521506309509 0.5357381105422974 0.0
1.2385493516921997 0.5357381105422974 0.0
1.179430365562439 0.5365630984306335 0.0
0.7608681321144104 0.5365630984306335 0.0
0.7017492055892944 0.5357381105422974 0.0
1.2988333702087402 0.5365630984306335 0.0
1.357560396194458 0.5390686392784119 0.0
0.5823462605476379 0.5357381105422974 0.0
0.6414651870727539 0.5365630984306335 0.0
0.5220622420310974 0.5365630984306335 0.0
0.4629422128200531 0.535739541053772 0.0
0.3435409665107727 0.5357455015182495 0.0
0.4026572108268738 0.5365669131278992 0.0
0.21006634831428528 0.8590372204780579 0.0
1.7943172454833984 0.8627070188522339 0.0
0.06134982034564018 0.7191494703292847 0.0
1.938650131225586 0.7191494703292847 0.0
1.634666085243225 0.7584379315376282 0.0
0.3355695903301239 0.8387951850891113 0.0
1.537941336631775 0.7633647918701172 0.0
1.9670078754425049 0.574067234992981 0.0
0.032992132008075714 0.574067234992981 0.0
1.6862140893936157 0.5314788222312927 0.0
1.6272135972976685 0.5317342281341553 0.0
1.5077245235443115 0.5309156775474548 0.0
1.5668202638626099 0.5316618084907532 0.0
1.7466963529586792 0.5298213958740234 0.0
1.4473658800125122 0.5297333002090454 0.0
1.804386019706726 0.5275400876998901 0.0
1.9283779859542847 0.5282225012779236 0.0
1.8656879663467407 0.5267112255096436 0.0
0.13432854413986206 0.5271331071853638 0.0
0.07162196189165115 0.5282225012779236 0.0
0.25373148918151855 0.527070939540863 0.0
0.19419340789318085 0.5297109484672546 0.0
0.31349387764930725 0.5272363424301147 0.0
0.37313446402549744 0.5270199179649353 0.0
0.4329495429992676 0.5274069309234619 0.0
0.49253740906715393 0.5270196795463562 0.0
0.5523557066917419 0.5274024605751038 0.0
1.3898069858551025 0.5277745127677917 0.0
1.3283581733703613 0.5270196795463562 0.0
0.6119403839111328 0.5270196795463562 0.0
1.2685397863388062 0.5274024605751038 0.0
0.6717586517333984 0.5274024605751038 0.0
0.7313433289527893 0.5270196795463562 0.0
1.20895516872406 0.5270196795463562 0.0
0.7911616563796997 0.5274024605751038 0.0
0.8507462739944458 0.5270196795463562 0.0
1.1491369009017944 0.5274024605751038 0.0
1.0895521640777588 0.5270196795463562 0.0
0.9105646014213562 0.5274024605751038 0.0
0.9701492786407471 0.5270196795463562 0.0
1.0297338962554932 0.5274024605751038 0.0
1.4776118993759155 0.5259945392608643 0.0
1.597015619277954 0.5255197882652283 0.0
1.7164177894592285 0.525999903678894 0.0
1.6834615468978882 0.8477573990821838 0.0
1.5822722911834717 0.6086509227752686 0.0
0.20459823310375214 0.6270732283592224 0.0
1.8037469387054443 0.6209055185317993 0.0
0.09990309923887253 0.8589919805526733 0.0
1.9000968933105469 0.8589919805526733 0.0
1.75603187084198 0.5789161324501038 0.0
0.10896337777376175 0.5982794761657715 0.0
1.8910366296768188 0.5982794761657715 0.0
1.4950518608093262 0.605266273021698 0.0
1.7049394845962524 0.6007562279701233 0.0
1.4387125968933105 0.5775743722915649 0.0
1.489302158355713 0.851039469242096 0.0
0.15732239186763763 0.5961292386054993 0.0
1.8436260223388672 0.5944437384605408 0.0
0.4399496018886566 0.6259797215461731 0.0
1.022565245628357 0.6257523894309998 0.0
[...]
POINT_DATA 348
SCALARS Psi double
LOOKUP_TABLE default
1.0878984745059557
1.0
1.0
1.0766684692566935
1.0877880062309115
1.0875451104727314
1.0891468084441194
1.0938728055775297
1.1033510760286218
1.1418217491790645
1.0
1.0
1.0
1.0
1.0
1.0
1.0
1.0
1.0
1.0
1.0
1.134268546394876
1.0942751242409927
1.0844750354832207
1.0798819113724523
1.077714553798394
1.0768590541920773
1.0879812890902438
1.0867118737204051
1.0848223047273422
1.0824207999613216
1.079479810585687
1.0760237479536725
1.0721218737328948
1.067867293876634
1.0633834607861146
1.0587584764216929
1.054092062072913
1.0494630468910593
1.044956522337976
1.0406243933956898
1.0364944248357604
1.0325996192882398
1.0289672844692155
1.0256109400017448
1.0225183845120294
1.0196944968265138
1.017138190673739
1.0148448620384218
1.0127905844154075
1.0109687791867497
1.00936917156317
1.0079826246135086
1.0067887562646103
1.0057803759760824
1.004949402855142
1.004289002796496
1.003786664642068
1.0034382993193363
1.0032411995662547
1.0031934442642565
1.0032914481786823
1.003534631137778
1.0039285742436157
1.0044762170592492
1.0051807818985046
1.0060462357464282
1.0070859529072405
1.0083062724646314
1.009714470003367
1.011316260527122
1.013134552846016
1.0151740580345434
1.0174309700495274
1.01993467857577
1.0226764930902965
1.0256555034856922
1.0288722148437468
1.0323240682516983
1.035990389185131
1.0398395377928895
1.0438338440271722
1.047925536345328
1.0520543032563117
1.0561439082956734
1.0601072579918704
1.0638381740188618
1.0672402127748832
1.0702047587101182
1.0726291927368325
1.0744756476863542
1.0757491274577402
1.0764613444358306
1.046786711109785
1.0518854974995675
1.0201199545675528
1.005808648840656
1.001673089073375
1.0036439487145905
1.0139159671410103
1.0733682570847694
1.0821127466395728
1.0311074484642948
1.0635343109925144
1.056689605790607
1.0425530035948256
1.0268241535058882
1.0156243623885863
1.0084497788028177
1.0043633587495804
1.0028457867719056
1.0030421303405723
1.005401094404194
1.0102988518926113
1.019045707142273
1.076281597020889
1.0856765450456787
1.029251343432604
1.0445295116975857
1.0659083918864967
1.0740341916067697
1.0030690600139431
1.00458115662571
1.0038189305412293
1.0086117114271165
1.007031564622708
1.0132384594373662
1.0232041804418606
1.0157540903960114
1.037486020199172
1.0554784179710104
1.0719808302860654
1.0811616401265451
1.0372069616076116
1.0782438794756577
1.086358019489165
1.0536728172765724
1.023573473517403
1.0130768691662806
1.0652546100950167
1.0031970524732634
1.003579888193805
1.0051657431281542
1.0063427129975033
1.0098477968557713
1.011873277050729
1.017911442660153
1.030094746612271
1.0464794892480935
1.035694769451616
1.0123546184431582
1.0031387426965657
1.0079927420497308
1.0019375177826855
1.0902638557374609
1.080784317872856
1.0226367967518464
1.0445797931519019
1.0766486529925219
1.0869297742305508
1.045499356402909
1.0301804044162055
1.0004324779457472
1.062223399494666
1.0182593122281176
1.010523864373783
1.0014801910947597
1.0321300518411
1.0494026491768567
1.0022866924230576
1.0028325832449367
1.0035487593325747
1.0056184817135578
1.0068375194663781
1.0105844966848938
1.0140169693417118
1.0195846246207063
1.071695917467351
1.0635402041394797
1.003369088874796
1.0005515289266609
1.0019091530081767
1.0044737988318224
1.0011770794819481
1.0738826786535514
1.0689326686854523
1.0837058532099082
1.0778577788648414
1.0080518454117
1.0609556648016776
1.0698224662033793
1.0035449095531341
1.0031568981136374
1.0033514355713222
1.0041283491624284
1.0045480023597397
1.006184409193019
1.0075849559333587
1.0055370177881395
1.0085721333133228
1.0117220718826008
1.010403315715078
1.0139270178229718
1.0208731770422113
1.015833421637927
1.027074305041727
1.034252173226459
1.051505429193981
1.0425620823575181
1.0395567065611644
1.0362112339411325
1.098043592003938
1.0884747659977645
1.0302226293673538
1.0266177484462415
1.01937644878879
1.077798180624489
1.0869960836179624
1.0498144934645595
1.0417081050561838
1.0271153359103764
1.0339262736259294
1.0581499446394853
1.0211277923838475
1.0654241818171712
1.075478572049173
1.0715896555248454
1.0810291667557501
1.0859076136182677
1.0655604214029526
1.0740717861641575
1.0562842958539673
1.0470323712779916
1.0383626599149167
1.0306044752126093
1.023898083915436
1.0163204858117931
1.0121235364307724
1.0182792587007452
1.0089275203723849
1.0137006778723994
1.010077578127013
1.0065003902889837
1.0073102832353096
1.005304971057527
1.004773307365899
1.0036843055085523
1.0039874088496967
1.0032948803014006
1.0031996899317748
1.0240373575830426
1.0377827111538829
1.0540276655972483
1.0247321279254769
1.0340237284796003
1.0720977954054285
1.0654174776673702
1.076679888502818
1.0694555700113775
1.0590427058657663
1.0841870038584849
1.0751055971259975
1.0242340643881829
1.0512398238740466
1.0196470454203768
1.009131994055497
1.0790605294258662
1.0704032401574197
1.0344440063444096
1.0027017717235087
1.003311606665584
1.0039833364087811
1.0061442472406217
1.0075903524986376
1.0117379897084298
1.0131967721970165
1.0208948219764937
1.0530712580074268
1.0269044500745297
1.0769456125866568
1.0853521982253713
1.0490327200726939
1.0329780828115338
1.0415769128202956
1.0531510677116758
1.0023830257254691
1.0026693188059088
1.003941891133833
1.0050219755396106
1.0079147626329799
1.0097441058480632
1.0144741786152893
1.0255108295521334
1.0411378679622323
1.1079720339973158
1.099286006036098
1.076666239548398
1.087955370491629
1.0607630654084652
1.0029734870245446
1.0032515757371263
1.0031706622361711
1.0612209313494327
1.0037527086786902
1.004377022243143
1.0056003462583494
1.0053642798872544
1.0069008653556961
1.0083446693186309
1.0107080771131693
1.0101583380858838
1.0127990591732856
1.0154620518408362
1.0192794234284834
1.026546538835692
1.0680748969586564
1.0320716499158253
1.0420100803881402
1.048885479019282
1.0174362726641157
1.0457873258269246
1.03048182684331
1.0386471657762255
1.0014570165755416
1.0217583110289663
1.0389659103823012
1.0837777927920713
1.0744046642619527
1.0002569121773572
1.0282062276243935
1.0692428658326996
1.0781093475386065
1.0039401956854492
1.0875215093191124
1.0771331067685348
1.0872136409914832
1.0783251134841094
1.0690638753648771
1.0624278431760121
1.0620060165735197
1.0185975169907078
1.001053800772159
1.0163453081959712
1.0065916817528007
1.0761908357874652
1.0872104888629055
1.0528187222834926
1.046971093893176

SCALARS Omega double
LOOKUP_TABLE default
4.1002765913952555
-10.327730795437239
-14.268649563399627
0.13217857057005256
4.492515426469022
-2.6837945533092866
-4.473557660635719
3.5422922230908984
1.0314781535196607
20.842645460337383
-8.188675201155261
-0.40947252232690845
-0.89852756539688
-0.2342139594322901
-0.11369097867693391
-0.03061211119600744
-0.11116900932911783
-0.18643504131595887
-0.6569892800293786
-0.6110339256940359
-6.115745385052178
17.94367058510872
3.512463678239391
-1.0379081270118369
0.1453482836503949
0.03351225769545087
-0.3220314024806714
2.1113617298251612
1.0918367791697694
0.7143021740891705
0.584951848572727
0.5327239424928043
0.5070780229781121
0.47819019534555013
0.4415368869515242
0.3974117805677762
0.34773268551837305
0.29624639566576827
0.24497892024430326
0.19618313349383287
0.1508090029267922
0.1095204822592148
0.07261347350923929
0.040333453582303794
0.012569702996594146
-0.011155351325755585
-0.031081819751218178
-0.04752459062267907
-0.06081139785749162
-0.0715413250892569
-0.08001355261120575
-0.08658310711543624
-0.09151389784436495
-0.09520530149282426
-0.09785149336891279
-0.09967300324596691
-0.10081314043081059
-0.10146383312349537
-0.10170958671505193
-0.10162686876825498
-0.10124796093050079
-0.1005929094826372
-0.09964829273768401
-0.09834303166010355
-0.09661228011889514
-0.09434272394429014
-0.09142625853226802
-0.08763222667935812
-0.08279843106941942
-0.07668844522634834
-0.06909527063781472
-0.05954731728712234
-0.04780290324633169
-0.033664973882112995
-0.016472751709136053
0.0039104991168346865
0.02774308170725805
0.05530912053972552
0.08677693338249365
0.12203690492383244
0.1605761313624062
0.20168960504484165
0.2440135057819968
0.28593508887074487
0.3247869460048121
0.3576013700938919
0.3795471549346566
0.3852480049248736
0.37065562196759405
0.33000239086080174
0.2610341029400733
0.16510919313852634
0.06635078647401303
0.31510667870923925
0.3393627792570146
-0.11646412749176349
-0.1309118566732838
-0.10570544243995773
-0.11366535237324162
-0.12385496956456055
0.717832807597064
0.8448250621500958
0.0469193001154069
0.4698816282082521
0.40812474717973873
0.16694960755945726
0.0028975471776292935
-0.07395212630188171
-0.10007944144844505
-0.10519634428076842
-0.10385548595085478
-0.10230780757650663
-0.09843631748925234
-0.08460653283603065
-0.04068562453863875
0.30650981069114613
0.0948899177550132
0.0518625084315
0.21730105434316288
0.43991741008743157
0.528059090925324
-0.10168073739244003
-0.0971510526393483
-0.10234065546531469
-0.08372762102087576
-0.09659159909061682
-0.07320444395238407
-0.011171932715504042
-0.04893133637851806
0.1162785066355227
0.3207472807175694
0.40938443047334266
0.4908519705417863
0.13352109535093018
2.2490601200610594
2.5274009286822188
0.31560108615848936
0.007244176735724039
-0.3187831354465973
0.43428948388249705
-0.10231092621530716
-0.0998169280585884
-0.10036161191026016
-0.09157790155002747
-0.08711259274701645
-0.0687306213496296
-0.04655457285293034
0.046334058932200696
0.2135102027855988
0.04064205045418372
-0.14344316639314603
-0.11680355787817154
-0.1234202943546331
-0.10619346693301156
0.9676272328603918
0.5747828401966617
-0.03102886952277315
0.2379945714033383
0.14049951445135453
0.45038740922694126
0.22190937382181802
0.0652362535382448
-0.09857906644872062
0.3875232242061466
-0.030069434431319705
-0.41888398810932836
-0.15081365778453218
0.03255470394388413
0.2753749214096662
-0.10461616328653607
-0.10807518479974325
-0.10488149130186564
-0.11268902260313438
-0.10497213967645642
-0.11310599821628156
-0.08190653119967951
-0.07324263405231832
0.836115503363709
0.6923071888275835
-0.2008834015372115
-0.09796264605237939
-0.142495133013612
-0.2089131399871073
-0.11464430760932508
0.3216035002336117
0.3990826750057584
0.5432661528295493
0.518151606135755
-0.30164007038659546
0.3762588670963447
0.4676878473961356
-0.10188407619533223
-0.10167070349087765
-0.10038421078974269
-0.09788440006933974
-0.10072930314021805
-0.09731626897699008
-0.08620622829255754
-0.09350530320431448
-0.09023276548607158
-0.07756313163218097
-0.0742698116994598
-0.05627397507817896
-0.024308275529581327
-0.056498591998947766
0.02302009819398636
0.08697762294083566
0.26890621586336894
0.17062922353276241
-0.6191909294929333
-0.5147470841180964
2.3294452251183873
1.9777754326560986
-0.011509735355884374
-0.23816940700355915
-0.1206283898850085
0.1669067765734738
-1.0217322041331478
0.26552628033393905
0.1801728004591219
0.03920614717891991
0.101483485274901
0.3466251469728993
-0.008566668966966723
0.39209163257015694
0.21860644186086176
0.36523518411957556
0.5338230402320062
0.7124939981814761
0.42341547286807923
0.49727144014908414
0.32227161888268663
0.21880357137012335
0.12752218731729711
0.053812359524137175
-0.001660651913636429
-0.041427650442221325
-0.06554031118924575
-0.04122242054830561
-0.08056138243070614
-0.0676089931570365
-0.08431587013061523
-0.09007820840612385
-0.09403104485497694
-0.09919241074583654
-0.09582606823749219
-0.09921886260104923
-0.10139610467122416
-0.10184407579969139
-0.10108332295295282
0.013962250852506188
0.1397994391240529
0.307602526358015
-0.2638912731586884
0.09725913339238518
0.6218180596334574
0.5337798651873361
2.90399537780088
2.1556482072648695
0.38564602074602394
0.4315959595352211
0.4734073822378058
0.005161758006293658
0.306237062543895
-0.024410384894869835
-0.28101069591675487
0.5921227818730053
0.5085895250224878
0.07552629316325978
-0.10322296887275638
-0.10472893921316576
-0.10082993818773771
-0.10385718315707827
-0.09299651549408844
-0.08998797085440247
-0.0714738515568977
-0.04182883895466474
0.31016150189239683
0.034135990376552953
1.2523254612616175
1.4785748227900044
0.2651621003456548
0.09036934035780952
0.18033095470711388
0.41361737900022594
-0.10537196689553965
-0.10433475528292678
-0.11016426595913352
-0.1044455063214664
-0.11200116001294717
-0.09772746947586218
-0.0991526260676131
-0.028490043250309623
0.14423106337770125
5.598342302591622
5.403331021628625
-0.012855761300024792
2.0975690307101
0.48885287031239594
-0.10265928972553028
-0.1031238363394324
-0.10135194605281952
0.4019968996816052
-0.09983805537978706
-0.10270297646838823
-0.10100566887877128
-0.09587048404491158
-0.09124247914049952
-0.09487819302648397
-0.08672286982348044
-0.07944071603207153
-0.06713690872420411
-0.06531830848652201
-0.042286178497389644
0.010999425359748571
0.48867830817135594
0.060394918394198194
0.16287202191491004
0.24370900185692304
-0.06902117037098451
0.2226250902280517
0.06938332803564436
0.14914127614773096
-0.1098502824309336
-0.16829937846756446
0.15224910600559963
0.38217091777736
0.37518986524038017
-0.08900149604555042
0.03241088177850703
0.44000536699613013
0.5321896093694766
-0.13409298090568697
0.4668976837172552
0.011219789280851078
-0.5101373601027691
0.34085160636954087
1.0203185730895414
0.9271598518386216
0.37332386665092804
-0.02622250182756484
-0.17256911002602174
-0.05296720420289314
-0.16617295466272325
0.11856080318472155
1.2482118262416615
0.5729328676145851
-1.2167721124887996

SCALARS Vx_analytic double
LOOKUP_TABLE default
4.1002765913952555
-10.327730795437239
-14.268649563399627
0.13210637964564304
4.492515426469022
-2.6837945533092866
-4.473557660635719
3.5422922230908984
1.0314781535196607
20.842645460337383
-8.188675201155261
-0.40947252232690845
-0.89852756539688
-0.2342139594322901
-0.11369097867693391
-0.03061211119600744
-0.11116900932911783
-0.18643504131595887
-0.6569892800293784
-0.6110339256940359
-6.115745385052178
17.94367058510872
3.5132646958976537
-1.0157705221643625
0.14755553987803077
0.034519698996905476
-0.3200761990909707
2.1113617298251612
1.0918367791697694
0.7143021740891705
0.584951848572727
0.5327239424928043
0.5070780229781121
0.47819019534555013
0.4415368869515242
0.3974117805677762
0.34773268551837305
0.29624639566576827
0.24497892024430326
0.19618313349383287
0.1508090029267922
0.1095204822592148
0.07261347350923929
0.040333453582303794
0.012569702996594146
-0.011155351325755585
-0.031081819751218178
-0.04752459062267907
-0.06081139785749162
-0.0715413250892569
-0.08001355261120575
-0.08658310711543624
-0.09151389784436495
-0.09520530149282426
-0.09785149336891279
-0.09967300324596691
-0.10081314043081059
-0.10146383312349537
-0.10170958671505193
-0.10162686876825498
-0.10124782764447375
-0.10059294203595248
-0.09964845504349927
-0.09834350189535748
-0.09661312131321417
-0.09434451871321374
-0.09142861869940279
-0.08763597043273673
-0.08280334278419674
-0.07669661379192382
-0.06910496134406924
-0.05956144850999937
-0.04782298753642421
-0.03367246039307044
-0.01648539144930868
0.0038884095125756592
0.027721518387241642
0.05529747411669723
0.08676827990184674
0.12202034388375073
0.16057453055896206
0.20170954643240022
0.24406643450449897
0.28600158380166857
0.32489654469163026
0.3577128693752339
0.37972785692981087
0.3856007159073042
0.3710283160674735
0.33040741310262284
0.26136830543650674
0.16535185060580354
0.06630766750185792
0.30728902821747967
0.3371706145203922
-0.11573714655976158
-0.13079943947897535
-0.10570535512258672
-0.11372780229855804
-0.12456353024125938
0.7269997387826512
0.8347617254267455
0.04600727050706448
0.4679910115477281
0.4105073469609864
0.1669214628921831
0.0031366688261217648
-0.07378379844948882
-0.10001567391502238
-0.1051812723105001
-0.10385296486351396
-0.10231052802642783
-0.09846832163773335
-0.08473012843694191
-0.04101671792190059
0.30863173663684224
0.10164156815048636
0.05153787113159984
0.21754434337275544
0.442280407935456
0.5270414712544172
-0.10168036654674482
-0.09715932322151828
-0.10233728463843043
-0.08377000668244895
-0.0965755624776747
-0.07315791419571585
-0.011102327659742086
-0.049075079326303214
0.116252777658203
0.32025822989220076
0.41159595865424903
0.4921555331205275
0.1334067718173194
2.2562437466210676
2.465884214837058
0.3162010447833614
0.007045941754580839
-0.31995283261268503
0.43353010341395987
-0.10230954769392336
-0.09981884025925633
-0.10035371804164382
-0.09159326976429376
-0.08708221542858123
-0.06878611534153074
-0.046483303434551766
0.04641118694977189
0.21338885459376983
0.041510521744839754
-0.14299730792707654
-0.11677288635733436
-0.12376119510937918
-0.10620445994292939
0.8926160215200265
0.5831067609989001
-0.03178275469366099
0.23793720672172902
0.14188665745962947
0.4592261061059467
0.22203848098199652
0.06507796699929737
-0.09857956795234044
0.3884750777208468
-0.03015694243534621
-0.41751390884695105
-0.15089691667724706
0.03283307489582664
0.27463727441353014
-0.10461649295099117
-0.10806434631944441
-0.1049061019287731
-0.11263371909279007
-0.10508948353444938
-0.11291175052060533
-0.08229300621498031
-0.07287632478345284
0.8282370826625755
0.6979119990899868
-0.20066822436237364
-0.09797116703329518
-0.14243482955534456
-0.20985491953696542
-0.11468425978070668
0.32291998604941236
0.4004661603603166
0.5455847679286876
0.5182087427676279
-0.30079309657278136
0.3759623336517151
0.4672919894449693
-0.10188333044736088
-0.10167020730504601
-0.10038502890214815
-0.09788823854120551
-0.10072764796779587
-0.09731253721016386
-0.08622901540783441
-0.09351735547737927
-0.09022641065756735
-0.07755275574638923
-0.07432039419982824
-0.056350997440430727
-0.02429735123121586
-0.0564879194725643
0.023012124123867588
0.08694559798089722
0.26873183033915093
0.17053225418830964
-0.6002055555268134
-0.5404004018220555
2.332489161030098
1.9952133237032232
-0.014257358255740054
-0.23526584134084388
-0.12196078555260494
0.16889580909627372
-1.0064285288173211
0.2657657157808181
0.18013718698435843
0.039050865950995675
0.10135564260252315
0.3473621975752624
-0.008684319441308767
0.3932823963537742
0.21971500681186537
0.36633678585673535
0.5347506766806107
0.7167242441770083
0.4231117937821753
0.4970539901842555
0.32210796456650104
0.21875178329865744
0.12751921381946008
0.05384393201920948
-0.0016322894170466519
-0.041511911547227345
-0.06558852476716982
-0.041193178595728894
-0.08058918604879146
-0.06759113276756124
-0.08430334730996124
-0.09009150162419001
-0.09402489190509163
-0.0991892092266484
-0.0958318457162359
-0.09922064607711543
-0.1013949096490576
-0.1018436101990927
-0.10108341549208762
0.013839356922690758
0.13970756573408413
0.30797848305281356
-0.26982869697866707
0.09687450540593966
0.6181302600908798
0.5377275131527545
2.8036412452524893
1.9883210013775223
0.38716987918924434
0.42802012396600625
0.47752159428404256
0.004780602872084
0.3069585322814917
-0.024649601424720623
-0.2824246628762921
0.5891893005312703
0.5124021151994164
0.0756995231924583
-0.1032224603517834
-0.10472312727102533
-0.10084273200595237
-0.10382419511947011
-0.09306743179948969
-0.08988417115105465
-0.07166214312955121
-0.041609082751072834
0.30944238264589186
0.033955124040663975
1.265000153518976
1.4602339633006955
0.2655939521574559
0.09019050065005856
0.1803862359408726
0.41485591046490283
-0.10536896235112124
-0.1043393000495088
-0.11013665881535413
-0.10448760294572489
-0.11189194719306866
-0.09790551172792822
-0.09883423321414518
-0.028031205034861
0.14415472576277016
5.320999423523685
5.209113620693318
-0.012093327463962121
2.0940044611013486
0.48593036170383075
-0.10265782145192247
-0.10312143452725096
-0.10135356153519667
0.4010911438358551
-0.09984342183598698
-0.10269515363428279
-0.10099102634862685
-0.09589104254251317
-0.09127527610199376
-0.09484443757497182
-0.08667060520639266
-0.07952305266406416
-0.06724861034728143
-0.06522696170042593
-0.042173116018743545
0.011130154362476814
0.4872496262964197
0.060495842170133575
0.16281780513993493
0.24343739592117758
-0.06948058667503398