# vtk DataFile Version 1.0
2D Simulation C++
ASCII
DATASET UNSTRUCTURED_GRID
FIELD FieldData 1
NODES 1 2 int
348 601

POINTS 348 double
0.0 0.5 0.0
0.0 1.0 0.0
2.0 1.0 0.0
2.0 0.5 0.0
0.0 0.528801679611206 0.0
0.0 0.564507782459259 0.0
0.0 0.6110168099403381 0.0
0.0 0.6721802353858948 0.0
0.0 0.7528436183929443 0.0
0.0 0.8593378663063049 0.0
0.16666941344738007 1.0 0.0
0.3333356976509094 1.0 0.0
0.5000020265579224 1.0 0.0
0.6666678786277771 1.0 0.0
0.8333337306976318 1.0 0.0
1.0 1.0 0.0
1.1666662693023682 1.0 0.0
1.3333321809768677 1.0 0.0
1.4999979734420776 1.0 0.0
1.6666642427444458 1.0 0.0
1.8333306312561035 1.0 0.0
2.0 0.8593378663063049 0.0
2.0 0.7528436183929443 0.0
2.0 0.6721802353858948 0.0
2.0 0.6110168099403381 0.0
2.0 0.564507782459259 0.0
2.0 0.528801679611206 0.0
0.029850948601961136 0.5 0.0
0.05970168858766556 0.5 0.0
0.08955242484807968 0.5 0.0
0.1194031685590744 0.5 0.0
0.14925390481948853 0.5 0.0
0.17910465598106384 0.5 0.0
0.20895539224147797 0.5 0.0
0.2388061285018921 0.5 0.0
0.2686568796634674 0.5 0.0
0.29850760102272034 0.5 0.0
0.32835835218429565 0.5 0.0
0.35820910334587097 0.5 0.0
0.3880598247051239 0.5 0.0
0.4179105758666992 0.5 0.0
0.44776129722595215 0.5 0.0
0.47761204838752747 0.5 0.0
0.5074627995491028 0.5 0.0
0.5373135209083557 0.5 0.0
0.5671642422676086 0.5 0.0
0.5970150232315063 0.5 0.0
0.6268657445907593 0.5 0.0
0.6567164659500122 0.5 0.0
0.6865672469139099 0.5 0.0
0.7164179682731628 0.5 0.0
0.7462686896324158 0.5 0.0
0.7761194705963135 0.5 0.0
0.8059701919555664 0.5 0.0
0.8358209133148193 0.5 0.0
0.865671694278717 0.5 0.0
0.89552241563797 0.5 0.0
0.9253731369972229 0.5 0.0
0.9552239179611206 0.5 0.0
0.9850746393203735 0.5 0.0
1.0149253606796265 0.5 0.0
1.0447760820388794 0.5 0.0
1.0746268033981323 0.5 0.0
1.1044776439666748 0.5 0.0
1.1343283653259277 0.5 0.0
1.1641790866851807 0.5 0.0
1.1940298080444336 0.5 0.0
1.2238805294036865 0.5 0.0
1.2537312507629395 0.5 0.0
1.2835819721221924 0.5 0.0
1.3134328126907349 0.5 0.0
1.3432835340499878 0.5 0.0
1.3731342554092407 0.5 0.0
1.4029849767684937 0.5 0.0
1.4328356981277466 0.5 0.0
1.4626864194869995 0.5 0.0
1.492537260055542 0.5 0.0
1.522387981414795 0.5 0.0
1.5522387027740479 0.5 0.0
1.5820894241333008 0.5 0.0
1.6119401454925537 0.5 0.0
1.6417908668518066 0.5 0.0
1.6716417074203491 0.5 0.0
1.701492428779602 0.5 0.0
1.731343150138855 0.5 0.0
1.761193871498108 0.5 0.0
1.7910445928573608 0.5 0.0
1.8208953142166138 0.5 0.0
1.8507460355758667 0.5 0.0
1.8805968761444092 0.5 0.0
1.910447597503662 0.5 0.0
1.940298318862915 0.5 0.0
1.970149040222168 0.5 0.0
1.7358819246292114 0.7499510645866394 0.0
0.2656642198562622 0.7486277222633362 0.0
0.49981194734573364 0.737183690071106 0.0
0.74151611328125 0.7359843254089355 0.0
0.9774143695831299 0.7371892929077148 0.0
1.201690912246704 0.7367381453514099 0.0
1.447761058807373 0.7383390665054321 0.0
1.8591958284378052 0.6421071290969849 0.0
0.14080412685871124 0.6421071290969849 0.0
1.588537573814392 0.6783608794212341 0.0
0.2553686201572418 0.6221352219581604 0.0
1.7466964721679688 0.6278358101844788 0.0
0.38199201226234436 0.6273008584976196 0.0
0.5013589859008789 0.6272794008255005 0.0
0.6207823157310486 0.6272526383399963 0.0
0.7401852607727051 0.627252459526062 0.0
0.8595882654190063 0.6272523999214172 0.0
0.9701492786407471 0.6212864518165588 0.0
1.0807102918624878 0.6272523999214172 0.0
1.2001131772994995 0.6272523999214172 0.0
1.3195161819458008 0.6272523999214172 0.0
1.4488563537597656 0.6310953497886658 0.0
1.9247323274612427 0.5706554055213928 0.0
0.07526770234107971 0.5706554055213928 0.0
1.5377081632614136 0.5910930037498474 0.0
1.6566967964172363 0.5934624075889587 0.0
1.8074009418487549 0.5708622932434082 0.0
0.1940300166606903 0.5737577676773071 0.0
1.0286364555358887 0.5665481686592102 0.0
1.14803946018219 0.5665481686592102 0.0
0.9116620421409607 0.5665481686592102 0.0
1.2674424648284912 0.5665481686592102 0.0
0.7922590970993042 0.5665481686592102 0.0
0.6728560328483582 0.5665482878684998 0.0
0.5534531474113464 0.5665481686592102 0.0
1.3892061710357666 0.5727682709693909 0.0
0.43402159214019775 0.5665869116783142 0.0
0.3146642744541168 0.5667200088500977 0.0
1.8656742572784424 0.5607567429542542 0.0
0.1343258023262024 0.5607567429542542 0.0
1.5970147848129272 0.5642029047012329 0.0
1.8783670663833618 0.7786769866943359 0.0
0.12163297086954117 0.7786769866943359 0.0
1.7164177894592285 0.562579333782196 0.0
1.4776118993759155 0.5620538592338562 0.0
1.5857784748077393 0.867691159248352 0.0
0.25373148918151855 0.5588531494140625 0.0
0.9701492786407471 0.5582930445671082 0.0
1.0895521640777588 0.5582930445671082 0.0
0.8507462739944458 0.5582930445671082 0.0
1.20895516872406 0.5582930445671082 0.0
0.7313433289527893 0.5582930445671082 0.0
1.3283581733703613 0.5582930445671082 0.0
0.6119403839111328 0.5582930445671082 0.0
0.49253740906715393 0.5582930445671082 0.0
0.37313446402549744 0.5582956075668335 0.0
0.36864349246025085 0.7376502752304077 0.0
0.602456271648407 0.7355343103408813 0.0
0.8441241383552551 0.7366551756858826 0.0
1.3355978727340698 0.7366551160812378 0.0
1.0895521640777588 0.7378703355789185 0.0
0.07051979005336761 0.6486480832099915 0.0
1.9294801950454712 0.6486480832099915 0.0
1.5086064338684082 0.6743985414505005 0.0
1.6785967350006104 0.6649783849716187 0.0
1.9543375968933105 0.5452249050140381 0.0
0.04566239193081856 0.5452249050140381 0.0
1.6567095518112183 0.5496091842651367 0.0
1.53738272190094 0.5491842031478882 0.0
0.91306072473526 0.8965699672698975 0.0
1.7782752513885498 0.5446287989616394 0.0
1.4163299798965454 0.5447981357574463 0.0
0.4287482798099518 0.8945969939231873 0.0
1.2610714435577393 0.8950135707855225 0.0
0.4313095211982727 0.6832783222198486 0.0
0.31561949849128723 0.6858259439468384 0.0
1.029850721359253 0.6781684160232544 0.0
0.9082015752792358 0.6848641633987427 0.0
1.1492537260055542 0.6781684160232544 0.0
0.7886138558387756 0.678956151008606 0.0
1.2709345817565918 0.684736430644989 0.0
0.6685023903846741 0.6868807673454285 0.0
1.4007169008255005 0.6702371835708618 0.0
0.5483440160751343 0.6792802214622498 0.0
0.19808045029640198 0.6887137293815613 0.0
1.797759771347046 0.6853783130645752 0.0
0.6811949610710144 0.8757594227790833 0.0
1.0189321041107178 0.8474968671798706 0.0
0.7922950983047485 0.8446238040924072 0.0
1.3765455484390259 0.8590760827064514 0.0
1.1571698188781738 0.8478953838348389 0.0
1.8954496383666992 0.5359624624252319 0.0
1.8360060453414917 0.5359931588172913 0.0
0.10455036163330078 0.5359624624252319 0.0
0.16417928040027618 0.5353734493255615 0.0
0.5530290007591248 0.8422092199325562 0.0
0.2832632064819336 0.5367912650108337 0.0
0.22469767928123474 0.5394234657287598 0.0
0.9405550956726074 0.5357381105422974 0.0
0.9997434020042419 0.5357381105422974 0.0
1.0600273609161377 0.5365630984306335 0.0
1.1191463470458984 0.5357381105422974 0.0
0.8802711367607117 0.5365630984306335 0.0
0.8211521506309509 0.5357381105422974 0.0
1.2385493516921997 0.5357381105422974 0.0
1.179430365562439 0.5365630984306335 0.0
0.7608681321144104 0.5365630984306335 0.0
0.7017492055892944 0.5357381105422974 0.0
1.2988333702087402 0.5365630984306335 0.0
1.357560396194458 0.5390686392784119 0.0
0.5823462605476379 0.5357381105422974 0.0
0.6414651870727539 0.5365630984306335 0.0
0.5220622420310974 0.5365630984306335 0.0
0.4629422128200531 0.535739541053772 0.0
0.3435409665107727 0.5357455015182495 0.0
0.4026572108268738 0.5365669131278992 0.0
0.21006634831428528 0.8590372204780579 0.0
1.7943172454833984 0.8627070188522339 0.0
0.06134982034564018 0.7191494703292847 0.0
1.938650131225586 0.7191494703292847 0.0
1.634666085243225 0.7584379315376282 0.0
0.3355695903301239 0.8387951850891113 0.0
1.537941336631775 0.7633647918701172 0.0
1.9670078754425049 0.574067234992981 0.0
0.032992132008075714 0.574067234992981 0.0
1.6862140893936157 0.5314788222312927 0.0
1.6272135972976685 0.5317342281341553 0.0
1.5077245235443115 0.5309156775474548 0.0
1.5668202638626099 0.5316618084907532 0.0
1.7466963529586792 0.5298213958740234 0.0
1.4473658800125122 0.5297333002090454 0.0
1.804386019706726 0.5275400876998901 0.0
1.9283779859542847 0.5282225012779236 0.0
1.8656879663467407 0.5267112255096436 0.0
0.13432854413986206 0.5271331071853638 0.0
0.07162196189165115 0.5282225012779236 0.0
0.25373148918151855 0.527070939540863 0.0
0.19419340789318085 0.5297109484672546 0.0
0.31349387764930725 0.5272363424301147 0.0
0.37313446402549744 0.5270199179649353 0.0
0.4329495429992676 0.5274069309234619 0.0
0.49253740906715393 0.5270196795463562 0.0
0.5523557066917419 0.5274024605751038 0.0
1.3898069858551025 0.5277745127677917 0.0
1.3283581733703613 0.5270196795463562 0.0
0.6119403839111328 0.5270196795463562 0.0
1.2685397863388062 0.5274024605751038 0.0
0.6717586517333984 0.5274024605751038 0.0
0.7313433289527893 0.5270196795463562 0.0
1.20895516872406 0.5270196795463562 0.0
0.7911616563796997 0.5274024605751038 0.0
0.8507462739944458 0.5270196795463562 0.0
1.1491369009017944 0.5274024605751038 0.0
1.0895521640777588 0.5270196795463562 0.0
0.9105646014213562 0.5274024605751038 0.0
0.9701492786407471 0.5270196795463562 0.0
1.0297338962554932 0.5274024605751038 0.0
1.4776118993759155 0.5259945392608643 0.0
1.597015619277954 0.5255197882652283 0.0
1.7164177894592285 0.525999903678894 0.0
1.6834615468978882 0.8477573990821838 0.0
1.5822722911834717 0.6086509227752686 0.0
0.20459823310375214 0.6270732283592224 0.0
1.8037469387054443 0.6209055185317993 0.0
0.09990309923887253 0.8589919805526733 0.0
1.9000968933105469 0.8589919805526733 0.0
1.75603187084198 0.5789161324501038 0.0
0.10896337777376175 0.5982794761657715 0.0
1.8910366296768188 0.5982794761657715 0.0
1.4950518608093262 0.605266273021698 0.0
1.7049394845962524 0.6007562279701233 0.0
1.4387125968933105 0.5775743722915649 0.0
1.489302158355713 0.851039469242096 0.0
0.15732239186763763 0.5961292386054993 0.0
1.8436260223388672 0.5944437384605408 0.0
0.4399496018886566 0.6259797215461731 0.0
1.022565245628357 0.6257523894309998 0.0
[...]
POINT_DATA 348
SCALARS Psi double
LOOKUP_TABLE default
1.0885468025153062
1.0
1.0
1.0780483710131206
1.0884321401030819
1.0881734329197494
1.0897386831019038
1.094387702195619
1.103727436183131
1.1419997845353673
1.0
1.0
1.0
1.0
1.0
1.0
1.0
1.0
1.0
1.0
1.0
1.134588773394901
1.0950040092522446
1.0855147911614431
1.081109359952462
1.0790434472263244
1.0782297541150854
1.0886344352945418
1.0873892501962
1.0855417559370808
1.0831982536322526
1.0803307429789868
1.0769617165879375
1.0731591663470996
1.0690136132263521
1.064648029405417
1.0601484216218025
1.0556123072997252
1.0511164854610484
1.0467456827757793
1.0425496293589278
1.0385541580189217
1.0347906889189842
1.0312867354079636
1.0280541829926382
1.0250791434768691
1.0223655832610337
1.0199133238543818
1.0177168164149948
1.0157507730216346
1.0140084214639713
1.012481000905312
1.0111589912467696
1.010020755952029
1.0090593510845733
1.0082684753249154
1.0076412344656165
1.007163865382217
1.006832673743301
1.006646738948491
1.0066044787457868
1.0067009527532371
1.0069351841509702
1.0073144397862113
1.0078418879668822
1.0085191928248372
1.0093500999318812
1.010349571616335
1.0115242654358247
1.0128799000677529
1.0144221197163725
1.0161758103332104
1.0181459808233382
1.0203246690453285
1.0227476540041538
1.0254040725077274
1.028292788839437
1.0314159254580613
1.0347717767349978
1.0383406635726655
1.0420911965534618
1.0459869116933673
1.049981234146355
1.0540152263710902
1.0580134574240758
1.061889574255878
1.0655384341076728
1.068866421265759
1.0717637252319754
1.074130015361766
1.0759287379627005
1.077164230554067
1.0778511325499438
1.0477149404348591
1.0525229970051382
1.0213806447595069
1.0075405296792754
1.0035611260447193
1.0054637291851019
1.01541875949054
1.0746298041583324
1.0827963015309188
1.0327852355912024
1.0645767711629077
1.058235032548649
1.0440523775416306
1.0287784520992074
1.017975235087776
1.011094160676705
1.007190942225234
1.0057882849087585
1.0059395202768628
1.0082096253049244
1.0129317567951108
1.021373710493731
1.0776503905947674
1.0863447979495602
1.0315481876660106
1.0464602711697717
1.067488267560932
1.074970696023645
1.006336389885119
1.0077931923894587
1.0070438533089765
1.011670458478509
1.0101047271018146
1.0160366829011684
1.0256060801192382
1.0185373442661358
1.039399019489309
1.05687592482285
1.0734572400424092
1.081947593826978
1.0394172712125698
1.0788827376506804
1.0867113053334114
1.0555139726756595
1.0261566824892043
1.0134760949148642
1.0664169437267017
1.0064810918673344
1.0068574358731883
1.0083534199719173
1.0095140093711066
1.0128197866531652
1.0148413835485153
1.0205425414299663
1.0322729673330278
1.0481410732608303
1.0366212304015827
1.013854170756112
1.0049686364454298
1.0096695438149514
1.003803612233466
1.090832695690193
1.081938441324517
1.0245315046948482
1.0461205629728763
1.0780243785390193
1.0875824907445257
1.047553041642795
1.0326169186272147
1.0008492247483138
1.0639230935348765
1.021059328857559
1.0107758494098895
1.001866363485168
1.0335424821742283
1.0504271181059124
1.0047679837800991
1.005223869143355
1.0059818615270721
1.0079412630494777
1.009090203581773
1.012633424283792
1.0161760569973146
1.0213825863605224
1.0723947125789177
1.0647215501654568
1.0038702598592895
1.0013242346490434
1.0026582588120014
1.0050204101856608
1.001924131277423
1.0753403991318156
1.0705039647298171
1.0844435170073454
1.0787402122001328
1.0086315278985714
1.062264286463759
1.0709000871962677
1.0068930909844906
1.00652657957801
1.006716172117293
1.0074662584909235
1.0078442970546229
1.0094042030879173
1.0107894647542979
1.008818422909429
1.011679010524156
1.0146894839730045
1.0135010281009833
1.0168928630051235
1.0234609677876285
1.0186231457302748
1.0294263303493245
1.0363545246298653
1.0530745146111318
1.0443953145541218
1.0397523720294606
1.0365061029848344
1.0984890018409084
1.0893520682238427
1.0312645522628858
1.026996682601407
1.020538713027886
1.079121460808433
1.0876226243841531
1.05180477311209
1.0438883868604036
1.0296824074621782
1.0363040232569551
1.0599595957329806
1.0238782366100356
1.0670783774249442
1.0768974559671294
1.0731071199744293
1.0818358984160619
1.0865954125742643
1.0667551656473688
1.075050031419415
1.0577279986087278
1.0487397885435872
1.0403403655637176
1.032842301757079
1.0263819027312004
1.0192274524938119
1.015172738658661
1.020981730659565
1.0120952607194813
1.0165955650308767
1.013130036569167
1.0097586917226105
1.0104909808186175
1.0085789132424323
1.0081001789832003
1.0070513422846996
1.007327105772576
1.0066687193646566
1.0065843057992723
1.0267013182534548
1.0400681323568346
1.055928841691672
1.025175880820552
1.0361136499003794
1.072970029238012
1.0668593873077443
1.0768442092173531
1.0697401556538009
1.0607326402985944
1.084879180448223
1.0764577390123558
1.026591105247315
1.0530015879006567
1.0222842718655287
1.0097055069336331
1.079860438313765
1.0718451336139638
1.0361759736672826
1.005626405973027
1.006204574020421
1.0068610651941687
1.00890590756598
1.0103334564742974
1.0142586420377453
1.0157640180114786
1.0230647878354575
1.0543116323922137
1.0293681785106712
1.0779436749950355
1.0858888676301297
1.050958403443951
1.0352750702856681
1.043670088518752
1.0544561380584514
1.0048978930171086
1.0051310156566844
1.0063417108062427
1.0074166380126865
1.0101634077432362
1.0119781719136245
1.0164519165615709
1.0271496455049014
1.042381120356206
1.108270086821588
1.0998425143970039
1.0780464192545003
1.088603359255183
1.0616690721637576
1.006146220493748
1.0063927714351422
1.0063248600813357
1.0624262421329793
1.0068956467265247
1.0074644920342033
1.0086403797224701
1.0084351467005261
1.009923546425218
1.0112490326821906
1.0135182642082416
1.0130518345037052
1.0156075293746345
1.0180632197591282
1.0217395992429523
1.028731502354357
1.0691216890857682
1.0340792186126944
1.0437057269396952
1.0504018189995616
1.019418459373294
1.047879905310933
1.0329642335632268
1.0405169611955445
1.002759436788515
1.0225282547407575
1.0410107756501152
1.0844971362606763
1.0758202359021352
1.00053107384392
1.0302645520547815
1.0707650044693677
1.0789607220513169
1.0051487215138835
1.088159787661837
1.0784903989593804
1.0878336974730556
1.0796094427415348
1.069568114638559
1.063257243952729
1.0637391371230815
1.0214390119315604
1.0012766667729698
1.01886703565717
1.0077730627908725
1.0775890812536126
1.0878739012306933
1.0528823300773342
1.047071792515624

SCALARS Omega double
LOOKUP_TABLE default
4.082536340590272
-10.347479987589947
-14.316202696096678
0.12599444372228868
4.488531929708274
-2.7048490988205165
-4.489719199306102
3.5317806501879043
1.0327787813376148
20.843507100881446
-8.210346160858096
-0.43825513450275905
-0.9434305568170555
-0.29633056168446326
-0.18391279470268082
-0.10397042065340277
-0.1784536345373511
-0.2517871451839546
-0.71177038760324
-0.651509733443064
-6.148643361190159
17.92207466701794
3.5155966624798807
-1.0364305330180847
0.15511425913886873
0.03166462491086
-0.3028298324726839
2.10006792322951
1.082862447025046
0.7078754585330671
0.581624961904835
0.5328999369042253
0.5110546165735815
0.48621739884755083
0.45378191902816734
0.4140377882805028
0.3688247522310396
0.3218278276410652
0.27499985570168545
0.2305913621355758
0.18947457499069492
0.1522538475118863
0.11917447111703036
0.09050765854635444
0.06609454269481009
0.045411326216632505
0.028202216676949596
0.014211998544857893
0.003097958994945547
-0.005771403286862818
-0.012679941118547543
-0.017899525552820875
-0.021688504829028257
-0.02447978764312189
-0.02643998010764293
-0.027702909975167354
-0.028401876177276793
-0.028771919999763636
-0.02887486265816125
-0.028711418753532347
-0.028299532177884355
-0.027716728445168225
-0.026970782033859046
-0.02592811911416167
-0.02452439006379645
-0.02272043344746245
-0.020431240593832282
-0.01737447309644561
-0.013391952480609726
-0.008326535254337871
-0.001992764834040137
0.006145527916570443
0.016323122848117017
0.028550303994454785
0.043731017624761
0.061897382867935655
0.0832843267521158
0.108227844285383
0.1369174489296364
0.16927356698030158
0.20478369146180891
0.24278286301394478
0.2819439557995172
0.3207020601524917
0.3564111833351806
0.3861235408166159
0.40502790144966916
0.4078346262620447
0.39042655871910825
0.3470719376949637
0.2755265070710381
0.1770285387658805
0.07434124374231471
0.311044590591713
0.3340325116014753
-0.1087101419909905
-0.11839480581602063
-0.09417844236845245
-0.10281245180855512
-0.11679501780509965
0.728017473723839
0.8412812851367782
0.06724248285221585
0.47882346877870996
0.42770279029882363
0.19031216449811392
0.0387249430286991
-0.029060733492736333
-0.05001459554331946
-0.0528429021608447
-0.049370957654253166
-0.04981341154870817
-0.04731022559885204
-0.03654959597892997
0.0003583906572089959
0.31823998398603925
0.08625791554692695
0.09531807395731372
0.24993932461995308
0.46104849285766
0.5326328337582508
-0.0345248914497117
-0.03097995747946291
-0.0354550009157701
-0.020298570186986307
-0.03166807079728301
-0.013204438917634845
0.039780240732615595
0.008171365795926982
0.15380996860898596
0.34197115524502364
0.42617617554375087
0.488650717511372
0.17559691835377625
2.238809197284519
2.5183114841702716
0.3459618560404234
0.05995389303833081
-0.3504051878616575
0.4472924995556458
-0.03410663123789841
-0.031936417944891174
-0.03316861630114186
-0.02551272161434302
-0.023304687581978775
-0.006639116912473165
0.01023805647071247
0.0916323339087531
0.24344548640471594
0.042155633445719834
-0.13239079406223664
-0.10466352029750839
-0.11401140803101369
-0.09547004956225796
0.9592489544083364
0.5812364158205313
-0.005155615080793195
0.25590934453806036
0.1508252280878875
0.43962027804777565
0.25942030415630274
0.11436391319356602
-0.14880051862636526
0.41302063401240996
0.02889015720918456
-0.447446459137423
-0.1985308175493402
0.05031183279409735
0.28266328621324427
-0.06909955570834438
-0.0747861202024701
-0.07013449591692758
-0.07803517035631521
-0.07424924522467659
-0.0834106377328849
-0.04986576867575624
-0.046506264462777044
0.8341502385988455
0.6993079978265302
-0.23795017720797193
-0.13299661725052253
-0.17389969290738952
-0.24535180307332816
-0.14923119648295682
0.3368872508647058
0.41957773868731596
0.5381267245219383
0.5199401301455983
-0.32564487919281326
0.39448101992170753
0.4774176892270942
-0.030656868298476532
-0.030308461781824444
-0.02924482900355881
-0.0271796196378541
-0.03013158636503227
-0.027712698335858214
-0.017866559303682195
-0.02380884635153335
-0.02247722442798854
-0.012346469977093759
-0.00807770662059119
0.006939416494742786
0.032471800372675524
0.004974737530190427
0.07372100099481274
0.13071235829173303
0.2960533352714183
0.206262678348124
-0.6374614210783719
-0.5405733000210026
2.3232191937349054
1.977779670376097
-0.014899300458458949
-0.2560454870107193
-0.12346679323556069
0.1745566008724588
-1.0353321663866173
0.3011762852142632
0.22196075361623294
0.09249603185642209
0.14930707661104822
0.3761039164256528
0.049701993090584345
0.4158397254474335
0.23136408543421982
0.3832922405173583
0.5320741303480865
0.7042794839400739
0.437509372735223
0.5030220325983435
0.34520576284913684
0.2505007975782275
0.16764756500272207
0.10149342494588479
0.05265209996296163
0.020759884355887565
-0.0001413437330009554
0.018454936560749424
-0.012663326011811365
-0.0036360529384610106
-0.017256260734602513
-0.020492896182589017
-0.02471928844903841
-0.028526729425656917
-0.02500141751484652
-0.02774138136291913
-0.029868733252131734
-0.030035354483379868
-0.029217277789159276
0.0699735100793588
0.1849016217978212
0.3402668686200607
-0.28873623789473885
0.13397342843890034
0.6248862091726328
0.5500648012599324
2.890997034401771
2.131380645501034
0.41071676433226706
0.4260832671633684
0.48588863711888614
0.049359207832371355
0.33336095325759035
0.02885540818769757
-0.3107357685238477
0.5916461696886202
0.5247047355128005
0.1056105110776903
-0.04983417871276991
-0.05135412489430872
-0.048265534791754314
-0.05180378186031205
-0.04261462971716534
-0.04160886999652814
-0.02415163263305994
-0.0006154240402143089
0.3255575000719399
0.08334055665876514
1.254233462906597
1.4725150811644367
0.2982408442794512
0.13482066535817802
0.21872141737839157
0.42400286492648337
-0.06817640662054424
-0.06933480960642535
-0.07485190761227399
-0.06981139174031635
-0.07750688791487997
-0.06553060463172347
-0.06897136960615378
-0.00481426095673175
0.1580191534679754
5.593131124137003
5.3927759060534415
-0.0021759841258900295
2.087554758632376
0.4930995020105897
-0.03914319929459858
-0.04030270078780711
-0.03863741146088236
0.4165766171837498
-0.03709179924243653
-0.04034630023645736
-0.038949401585672436
-0.034538244294993255
-0.03052091870796107
-0.035041746963747754
-0.028289837923255706
-0.021355475725466533
-0.010687273452712817
-0.011165398850908509
0.00888295995959305
0.05527780357973594
0.4976073599951736
0.09997919585388287
0.19332824770777496
0.2686367195395136
-0.04201655443107527
0.26167915687146254
0.1203774232800937
0.17841951344275533
-0.1215649013688347
-0.1763674787772426
0.1882934372686329
0.37669558568201106
0.3893150256652593
-0.14565888222812934
0.0663766158117981
0.4588385200369476
0.5331226631879733
-0.14662627428495156
0.45436985556827697
0.019740888504299316
-0.5207313231745931
0.35015450948094023
1.012785834646411
0.9217913415031659
0.4000416586887897
0.034501419325635836
-0.2263315438248319
-0.005714498452676282
-0.17302008213607123
0.12955675596786054
1.2384150767494173
0.5582684906724007
-1.2515155975511365

SCALARS Vx_analytic double
LOOKUP_TABLE default
4.082536340590272
-10.347479987589947
-14.316202696096678
0.12594023640695148
4.488531929708274
-2.7048490988205165
-4.489719199306102
3.5317806501879043
1.0327787813376148
20.843507100881446
-8.210346160858096
-0.43825513450275905
-0.9434305568170555
-0.29633056168446326
-0.18391279470268082
-0.10397042065340277
-0.1784536345373511
-0.2517871451839546
-0.7117703876032397
-0.651509733443064
-6.148643361190159
17.92207466701794
3.51584371454924
-1.0153788020424808
0.1572105971595188
0.032745108668080676
-0.30102395079774247
2.10006792322951
1.082862447025046
0.7078754585330671
0.581624961904835
0.5328999369042253
0.5110546165735815
0.48621739884755083
0.45378191902816734
0.4140377882805028
0.3688247522310396
0.3218278276410652
0.27499985570168545
0.2305913621355758
0.18947457499069492
0.1522538475118863
0.11917447111703036
0.09050765854635444
0.06609454269481009
0.045411326216632505
0.028202216676949596
0.014211998544857893
0.003097958994945547
-0.005771403286862818
-0.012679941118547543
-0.017899525552820875
-0.021688504829028257
-0.02447978764312189
-0.02643998010764293
-0.027702909975167354
-0.028401876177276793
-0.028771919999763636
-0.02887486265816125
-0.028711418753532347
-0.028299801381259683
-0.027718986903404984
-0.026975399491780256
-0.025934723396077372
-0.024533570593821854
-0.022732628248900818
-0.02044647239836076
-0.01739268621086311
-0.013413752355644912
-0.00835376943455725
-0.002024371259520055
0.006106286176455645
0.016275234450601493
0.028520939747688493
0.04369455538187524
0.061847979216841244
0.08323364929066523
0.10818674334818469
0.13687882475821966
0.16922530860726803
0.20475116088537587
0.2427732230279778
0.2819688950156432
0.32074016571206704
0.35649497155396326
0.38621412239054237
0.4051904986064602
0.40816405138333756
0.39077785295962025
0.34745926149466366
0.27584527978716367
0.17726410672901277
0.07431740692906139
0.30356661624820286
0.3320411493481742
-0.10773096430635291
-0.11814387981136049
-0.09417073657145154
-0.10297869678691347
-0.11764442568331354
0.7371162634240427
0.8314614040952879
0.06612031906393578
0.47708473468974966
0.42997898343059576
0.19045644134298903
0.039146380997210246
-0.028741741341698657
-0.04984580713265895
-0.05276967772733384
-0.04935304417177437
-0.049849271189838514
-0.0474331545017037
-0.036822418633255624
-0.00017085023039087332
0.3202782216531762
0.0928124442650249
0.09480862145539365
0.24998714941156625
0.4632562828685852
0.5316640499135675
-0.03453092239008653
-0.031034553588747814
-0.03543120406522321
-0.020430222789694093
-0.03160970076877729
-0.013093524716467068
0.03993305773044288
0.007887751074277303
0.15387672819980008
0.341564165346868
0.428279959841579
0.4899265623433831
0.17532728346357893
2.2481652723030647
2.4565559531860663
0.3464242574379417
0.05961392099436714
-0.351558361784557
0.44659659311352606
-0.03409658230836783
-0.0319597199793912
-0.033130434469660255
-0.025582759301122623
-0.0232224295157309
-0.006783860743536271
0.010381111070734616
0.09179446408350325
0.2434078497771425
0.04330210214535713
-0.13173478424814147
-0.10454711447445948
-0.11452437739212133
-0.09552127268656783
0.8853010501097751
0.5893450468669555
-0.006127241864580612
0.2556733081989338
0.15215763528682852
0.44816235015430694
0.259421208392784
0.11407987037022876
-0.14877970848099262
0.41387985430158997
0.028709059986444345
-0.446026931275471
-0.19865257823891636
0.05081594995177559
0.2821177738745532
-0.06910983308420848
-0.07472902264354037
-0.07023272143149088
-0.07788215079558206
-0.07451650470002988
-0.0830594206393518
-0.05046259022162032
-0.04594377175753371
0.8263778918756548
0.7049300890324753
-0.23763580700498163
-0.13301372952459345
-0.17376705746989493
-0.24635718377466376
-0.14932643972220688
0.33814623998828086
0.4208841542892816
0.5403785513723702
0.5200015589993116
-0.3246528963815492
0.39421322354830535
0.4770481624641577
-0.030651213657629826
-0.0303070296253184
-0.02925631245527409
-0.027208953046810813
-0.03012131864604879
-0.02769664839813672
-0.017944407785637807
-0.023861522316441387
-0.02245480021698972
-0.012316785742365683
-0.00819919051850717
0.006775257021639564
0.032508132229247116
0.0050083685722705825
0.07374175168086103
0.1307100941039934
0.2959093522911255
0.2061971650672401
-0.6182988154387764
-0.56524910019033
2.3256898410308997
1.9964852901828534
-0.017699508764614638
-0.2529448900917274
-0.12494122552641282
0.1764887329087019
-1.0202974114110355
0.30131932020564095
0.22182234624271088
0.09224498681645137
0.14907985414734384
0.376747389084658
0.0494933817466666
0.41695277259909164
0.2324286710903313
0.38433879759183304
0.5329781353950744
0.708367735238028
0.4372311111621885
0.5028181446548506
0.3450672342361083
0.25047600189220814
0.16767002047966165
0.10155052396502354
0.05270334660257814
0.02060113480404566
-0.0002455595387806623
0.018505830878318526
-0.01273932476737589
-0.003599903278106146
-0.01722764100208906
-0.02054122708821003
-0.024700737115102366
-0.028513997960372336
-0.02503252324888799
-0.027756591895170105
-0.029861710963030585
-0.030032325720018623
-0.029220433506684476
0.0697731576357861
0.18472363905144398
0.34055717534335667
-0.2948657633741259
0.13338185042107517
0.6213305212546837
0.5538250026924058
2.790265341476677
1.9684529348082873
0.4120932104173212
0.4226087946915342
0.4898266260331313
0.04877874119502674
0.3339046539937019
0.028460421824168337
-0.31221914939150663
0.5888001749266376
0.5283984164200767
0.10595228496862293
-0.049840947956736714
-0.05131486418948186
-0.04834208227569981
-0.05169481519539817
-0.04280869251401179
-0.04138932725052054
-0.024517340935249297
-0.00024302146992574635
0.3250002026421425
0.08301377362430457
1.2671721528403421
1.4543281303494424
0.29853089451070686
0.1344844397462401
0.21863266360206549
0.425115572480682
-0.06815524550791628
-0.06938497997767933
-0.07474587412673034
-0.0699653197973894
-0.0772611403249489
-0.06588662136901578
-0.06846008667020356
-0.004122245699602702
0.1581613461782531
5.317088262155268
5.200104140373156
-0.0014519555359631617
2.083872151872099
0.4903811181961224
-0.03913497952202008
-0.04028470144809434
-0.03866062356772946
0.41576622015916503
-0.037134149361117044
-0.0403027945052506
-0.03889044117157307
-0.03462841184848433
-0.03063795535874012
-0.034942214220462495
-0.02816486649595155
-0.021558191976064105
-0.01093168758356002
-0.010979161133602451
0.009094176680952044
0.05552530953977731
0.4962655590420833
0.10019449563297521
0.19339544759736965
0.2684758824406668
-0.042719371023674436