# vtk DataFile Version 1.0
2D Simulation C++
ASCII
DATASET UNSTRUCTURED_GRID
FIELD FieldData 1
NODES 1 2 int
66 106

POINTS 66 double
0.0 0.0 0.0
0.0 1.0 0.0
1.0 1.0 0.0
1.0 0.0 0.0
0.0 0.224003374577 0.0
0.0 0.448006749153 0.0
0.0 0.608711063862 0.0
0.0 0.769415378571 0.0
0.0 0.884707689285 0.0
0.115292325616 1.0 0.0
0.230584651232 1.0 0.0
0.391288936138 1.0 0.0
0.551993250847 1.0 0.0
0.775996625423 1.0 0.0
1.0 0.789787709713 0.0
1.0 0.579575359821 0.0
1.0 0.41641998291 0.0
1.0 0.253264576197 0.0
1.0 0.126632288098 0.0
0.873367726803 0.0 0.0
0.746735394001 0.0 0.0
0.583580076694 0.0 0.0
0.420424699783 0.0 0.0
0.210212349892 0.0 0.0
0.526392269574 0.4891411509 0.0
0.312537114412 0.690264035257 0.0
0.696676736501 0.28275760756 0.0
0.605025079469 0.743114553975 0.0
0.260725730281 0.398994101664 0.0
0.460577380394 0.250056632227 0.0
0.755326599822 0.564481625498 0.0
0.199955060004 0.801179864438 0.0
0.798911783616 0.194265861799 0.0
0.791878771299 0.772764715112 0.0
0.230654681962 0.210140668218 0.0
0.850084903247 0.333233850504 0.0
0.670180531439 0.128974562309 0.0
0.328496151971 0.86243475945 0.0
0.138567303925 0.672915407548 0.0
0.477942069672 0.634842072059 0.0
0.564532373496 0.350760707717 0.0
0.419006109363 0.387102041576 0.0
0.625720454979 0.588623786753 0.0
0.677479014622 0.881714632518 0.0
0.119696408069 0.323906630438 0.0
0.500420648795 0.875291594046 0.0
0.125829265623 0.501219201349 0.0
0.356316557228 0.135755873364 0.0
0.865293607706 0.649933169146 0.0
0.510879433533 0.120855426072 0.0
0.862137908469 0.493696682591 0.0
0.371062033008 0.528721398122 0.0
0.697457263961 0.440513644995 0.0
0.0999085469294 0.900497129962 0.0
0.443124513266 0.761845768526 0.0
0.581839240164 0.226194508036 0.0
0.897517802112 0.10092077856 0.0
0.79387525498 0.086426185892 0.0
0.907539334803 0.206602761513 0.0
0.199536000692 0.910842838261 0.0
0.0896362180136 0.801177004542 0.0
0.240578241686 0.560020099163 0.0
0.8557665253 0.890035484818 0.0
0.110872156057 0.145055667407 0.0
0.725876319984 0.667695684144 0.0
0.341911607202 0.27856733759 0.0

CELLS 106 424
3 25 31 37
3 25 38 31
3 24 41 51
3 26 52 35
3 24 42 52
3 35 52 50
3 26 32 36
3 26 35 32
3 24 51 39
3 27 43 33
3 28 34 44
3 27 33 64
3 28 65 34
3 17 35 16
3 20 21 36
3 24 52 40
3 28 51 41
3 10 11 37
3 7 38 6
3 30 52 42
3 14 48 33
3 23 34 47
3 12 13 43
3 5 44 4
3 15 50 48
3 22 47 49
3 22 23 47
3 15 48 14
3 27 64 42
3 28 41 65
3 24 39 42
3 33 43 62
3 34 63 44
3 1 53 8
3 1 9 53
3 27 42 39
3 5 46 44
3 12 43 45
3 24 40 41
3 25 37 54
3 29 41 40
3 10 37 59
3 7 60 38
3 20 36 57
3 17 58 35
3 25 61 38
3 32 57 36
3 32 35 58
3 28 44 46
3 27 45 43
3 15 16 50
3 22 49 21
3 31 59 37
3 31 38 60
3 30 50 52
3 29 49 47
3 30 48 50
3 13 62 43
3 4 44 63
3 14 33 62
3 23 63 34
3 21 49 36
3 16 35 50
3 5 6 46
3 12 45 11
3 3 56 18
3 3 19 56
3 28 61 51
3 28 46 61
3 25 39 51
3 11 45 37
3 6 38 46
3 26 40 52
3 26 36 55
3 25 54 39
3 37 45 54
3 26 55 40
3 7 8 60
3 10 59 9
3 27 39 54
3 2 62 13
3 0 4 63
3 29 40 55
3 2 14 62
3 0 63 23
3 20 57 19
3 17 18 58
3 36 49 55
3 27 54 45
3 38 61 46
3 29 55 49
3 8 53 60
3 9 59 53
3 29 47 65
3 30 64 48
3 29 65 41
3 30 42 64
3 25 51 61
3 34 65 47
3 33 48 64
3 31 53 59
3 31 60 53
3 19 57 56
3 18 56 58
3 32 56 57
3 32 58 56

CELL_TYPES 106
5 5 5 5 5 5 5 5 5 5 5 5 5 5 5 5 5 5 5 5 5 5 5 5 5 5 5 5 5 5 5 5 5 5 5 5 5 5 5 5 5 5 5 5 5 5 5 5 5 5 5 5 5 5 5 5 5 5 5 5 5 5 5 5 5 5 5 5 5 5 5 5 5 5 5 5 5 5 5 5 5 5 5 5 5 5 5 5 5 5 5 5 5 5 5 5 5 5 5 5 5 5 5 5 5 5 

POINT_DATA 66
