# vtk DataFile Version 1.0
2D Simulation C++
ASCII
DATASET UNSTRUCTURED_GRID
FIELD FieldData 1
NODES 1 2 int
66 106

POINTS 66 double
0.0 0.0 0.0
0.0 1.0 0.0
1.0 1.0 0.0
1.0 0.0 0.0
0.0 0.224003374577 0.0
0.0 0.448006749153 0.0
0.0 0.608711063862 0.0
0.0 0.769415378571 0.0
0.0 0.884707689285 0.0
0.115292325616 1.0 0.0
0.230584651232 1.0 0.0
0.391288936138 1.0 0.0
0.551993250847 1.0 0.0
0.775996625423 1.0 0.0
1.0 0.789787709713 0.0
1.0 0.579575359821 0.0
1.0 0.41641998291 0.0
1.0 0.253264576197 0.0
1.0 0.126632288098 0.0
0.873367726803 0.0 0.0
0.746735394001 0.0 0.0
0.583580076694 0.0 0.0
0.420424699783 0.0 0.0
0.210212349892 0.0 0.0
0.522910048434 0.491002606774 0.0
0.308548662866 0.693751237989 0.0
0.696514125506 0.282605689728 0.0
0.601615513926 0.743397513459 0.0
0.258534228643 0.402709801711 0.0
0.459852754773 0.252108817049 0.0
0.752827453576 0.563687124855 0.0
0.197227162425 0.803917778456 0.0
0.799551639717 0.193611867175 0.0
0.789990147838 0.772137788123 0.0
0.23012441354 0.212321171364 0.0
0.849826222929 0.33265695936 0.0
0.670691445848 0.128926538419 0.0
0.326091143006 0.86417761277 0.0
0.136294470107 0.675697480609 0.0
0.473467130526 0.637027632296 0.0
0.56299462021 0.352040713199 0.0
0.416542113833 0.390233931622 0.0
0.622018408568 0.588833605296 0.0
0.675988498213 0.881449797985 0.0
0.119081279907 0.32576489181 0.0
0.498294165338 0.875799861278 0.0
0.124348857123 0.50386287968 0.0
0.356126115575 0.137338721428 0.0
0.863765174724 0.649202937749 0.0
0.511073996397 0.121710192729 0.0
0.86108492018 0.492976529292 0.0
0.367070893147 0.532532144892 0.0
0.695493660912 0.440369390175 0.0
0.0986404684236 0.901845283278 0.0
0.439243590284 0.763705242842 0.0
0.581859621125 0.226980852569 0.0
0.898025227668 0.100471535198 0.0
0.794471334047 0.0860454110262 0.0
0.907927862857 0.206060089247 0.0
0.197931480976 0.912264095095 0.0
0.0881138412436 0.80304444558 0.0
0.237245026837 0.564214319254 0.0
0.854989398147 0.889629488138 0.0
0.110885649453 0.146003441461 0.0
0.722881053381 0.667015148907 0.0
0.34067959698 0.281647382421 0.0

CELLS 106 424
3 25 31 37
3 25 38 31
3 24 41 51
3 26 52 35
3 24 42 52
3 35 52 50
3 26 32 36
3 26 35 32
3 24 51 39
3 27 43 33
3 28 34 44
3 27 33 64
3 28 65 34
3 17 35 16
3 20 21 36
3 24 52 40
3 28 51 41
3 10 11 37
3 7 38 6
3 30 52 42
3 14 48 33
3 23 34 47
3 12 13 43
3 5 44 4
3 15 50 48
3 22 47 49
3 22 23 47
3 15 48 14
3 27 64 42
3 28 41 65
3 24 39 42
3 33 43 62
3 34 63 44
3 1 53 8
3 1 9 53
3 27 42 39
3 5 46 44
3 12 43 45
3 24 40 41
3 25 37 54
3 29 41 40
3 10 37 59
3 7 60 38
3 20 36 57
3 17 58 35
3 25 61 38
3 32 57 36
3 32 35 58
3 28 44 46
3 27 45 43
3 15 16 50
3 22 49 21
3 31 59 37
3 31 38 60
3 30 50 52
3 29 49 47
3 30 48 50
3 13 62 43
3 4 44 63
3 14 33 62
3 23 63 34
3 21 49 36
3 16 35 50
3 5 6 46
3 12 45 11
3 3 56 18
3 3 19 56
3 28 61 51
3 28 46 61
3 25 39 51
3 11 45 37
3 6 38 46
3 26 40 52
3 26 36 55
3 25 54 39
3 37 45 54
3 26 55 40
3 7 8 60
3 10 59 9
3 27 39 54
3 2 62 13
3 0 4 63
3 29 40 55
3 2 14 62
3 0 63 23
3 20 57 19
3 17 18 58
3 36 49 55
3 27 54 45
3 38 61 46
3 29 55 49
3 8 53 60
3 9 59 53
3 29 47 65
3 30 64 48
3 29 65 41
3 30 42 64
3 25 51 61
3 34 65 47
3 33 48 64
3 31 53 59
3 31 60 53
3 19 57 56
3 18 56 58
3 32 56 57
3 32 58 56

CELL_TYPES 106
5 5 5 5 5 5 5 5 5 5 5 5 5 5 5 5 5 5 5 5 5 5 5 5 5 5 5 5 5 5 5 5 5 5 5 5 5 5 5 5 5 5 5 5 5 5 5 5 5 5 5 5 5 5 5 5 5 5 5 5 5 5 5 5 5 5 5 5 5 5 5 5 5 5 5 5 5 5 5 5 5 5 5 5 5 5 5 5 5 5 5 5 5 5 5 5 5 5 5 5 5 5 5 5 5 5 

POINT_DATA 66
