# vtk DataFile Version 1.0
2D Simulation C++
ASCII
DATASET UNSTRUCTURED_GRID
FIELD FieldData 1
NODES 1 2 int
73 120

POINTS 73 double
0.0 0.0 0.0
0.0 1.0 0.0
1.0 1.0 0.0
1.0 0.0 0.0
0.0 0.224003374577 0.0
0.0 0.448006749153 0.0
0.0 0.608711063862 0.0
0.0 0.769415378571 0.0
0.0 0.884707689285 0.0
0.115292325616 1.0 0.0
0.230584651232 1.0 0.0
0.391288936138 1.0 0.0
0.551993250847 1.0 0.0
0.775996625423 1.0 0.0
1.0 0.789787709713 0.0
1.0 0.579575359821 0.0
1.0 0.41641998291 0.0
1.0 0.253264576197 0.0
1.0 0.126632288098 0.0
0.873367726803 0.0 0.0
0.746735394001 0.0 0.0
0.583580076694 0.0 0.0
0.420424699783 0.0 0.0
0.210212349892 0.0 0.0
0.404829255087 0.595163593671 0.0
0.597707718863 0.402212786239 0.0
0.303130082006 0.306849015825 0.0
0.692979309872 0.697152779924 0.0
0.212529439315 0.787623110238 0.0
0.79357410844 0.20652188125 0.0
0.820910483246 0.428481928042 0.0
0.571601590517 0.179179503736 0.0
0.183071522605 0.576012441264 0.0
0.423953947528 0.816906860066 0.0
0.109583065918 0.890517684534 0.0
0.103693848412 0.777893972524 0.0
0.222401975484 0.896294304483 0.0
0.83375818472 0.839978704017 0.0
0.651501549286 0.867189526884 0.0
0.133301930887 0.348820032482 0.0
0.160163139498 0.166398899644 0.0
0.500312079572 0.499527707927 0.0
0.462550444212 0.363764559464 0.0
0.364477452611 0.462895979777 0.0
0.536919932797 0.635664594308 0.0
0.63602277261 0.537353198273 0.0
0.33581784674 0.134904485878 0.0
0.865041825353 0.664248732699 0.0
0.577252355633 0.280965105929 0.0
0.452700816463 0.230287234296 0.0
0.769599182068 0.547350725552 0.0
0.719102603976 0.422804590083 0.0
0.0951374011138 0.656626502461 0.0
0.105282687598 0.51292309573 0.0
0.48717068805 0.894735326331 0.0
0.343723503865 0.904696744769 0.0
0.231406943494 0.457681770144 0.0
0.284918927006 0.575528328818 0.0
0.424462684305 0.715159270052 0.0
0.542067848535 0.769123469983 0.0
0.892268268489 0.107754395029 0.0
0.901510128744 0.226481659631 0.0
0.773553482556 0.0985399849224 0.0
0.908419292008 0.3553196306 0.0
0.896027740315 0.501847814842 0.0
0.498199725469 0.103964820089 0.0
0.644713848022 0.0916368042885 0.0
0.309456173306 0.690644167505 0.0
0.321557900907 0.800538409016 0.0
0.199410819424 0.678697505937 0.0
0.680014356405 0.192874964832 0.0
0.807262552483 0.320090506232 0.0
0.696461181892 0.303690366177 0.0

CELLS 120 480
3 1 34 8
3 34 35 8
3 34 28 35
3 8 35 7
3 1 9 34
3 9 36 34
3 9 10 36
3 34 36 28
3 2 37 13
3 37 38 13
3 37 27 38
3 13 38 12
3 0 4 40
3 4 39 40
3 4 5 39
3 40 39 26
3 24 41 43
3 41 42 43
3 41 25 42
3 43 42 26
3 24 44 41
3 44 45 41
3 44 27 45
3 41 45 25
3 0 40 23
3 40 46 23
3 40 26 46
3 23 46 22
3 2 14 37
3 14 47 37
3 14 15 47
3 37 47 27
3 25 48 42
3 48 49 42
3 48 31 49
3 42 49 26
3 25 45 51
3 45 50 51
3 45 27 50
3 51 50 30
3 5 6 53
3 6 52 53
3 6 7 52
3 53 52 32
3 10 11 55
3 11 54 55
3 11 12 54
3 55 54 33
3 24 43 57
3 43 56 57
3 43 26 56
3 57 56 32
3 24 58 44
3 58 59 44
3 58 33 59
3 44 59 27
3 3 60 18
3 60 61 18
3 60 29 61
3 18 61 17
3 3 19 60
3 19 62 60
3 19 20 62
3 60 62 29
3 5 53 39
3 53 56 39
3 53 32 56
3 39 56 26
3 12 38 54
3 38 59 54
3 38 27 59
3 54 59 33
3 15 16 64
3 16 63 64
3 16 17 63
3 64 63 30
3 20 21 66
3 21 65 66
3 21 22 65
3 66 65 31
3 22 46 65
3 46 49 65
3 46 26 49
3 65 49 31
3 15 64 47
3 64 50 47
3 64 30 50
3 47 50 27
3 24 67 58
3 67 68 58
3 67 28 68
3 58 68 33
3 24 57 67
3 57 69 67
3 57 32 69
3 67 69 28
3 7 35 52
3 35 69 52
3 35 28 69
3 52 69 32
3 10 55 36
3 55 68 36
3 55 33 68
3 36 68 28
3 20 66 62
3 66 70 62
3 66 31 70
3 62 70 29
3 17 61 63
3 61 71 63
3 61 29 71
3 63 71 30
3 25 72 48
3 72 70 48
3 72 29 70
3 48 70 31
3 25 51 72
3 51 71 72
3 51 30 71
3 72 71 29

CELL_TYPES 120
5 5 5 5 5 5 5 5 5 5 5 5 5 5 5 5 5 5 5 5 5 5 5 5 5 5 5 5 5 5 5 5 5 5 5 5 5 5 5 5 5 5 5 5 5 5 5 5 5 5 5 5 5 5 5 5 5 5 5 5 5 5 5 5 5 5 5 5 5 5 5 5 5 5 5 5 5 5 5 5 5 5 5 5 5 5 5 5 5 5 5 5 5 5 5 5 5 5 5 5 5 5 5 5 5 5 5 5 5 5 5 5 5 5 5 5 5 5 5 5 

POINT_DATA 73
