# vtk DataFile Version 1.0
2D Simulation C++
ASCII
DATASET UNSTRUCTURED_GRID
FIELD FieldData 1
NODES 1 2 int
66 106

POINTS 66 double
0.0 0.0 0.0
0.0 1.0 0.0
1.0 1.0 0.0
1.0 0.0 0.0
0.0 0.224003374577 0.0
0.0 0.448006749153 0.0
0.0 0.608711063862 0.0
0.0 0.769415378571 0.0
0.0 0.884707689285 0.0
0.115292325616 1.0 0.0
0.230584651232 1.0 0.0
0.391288936138 1.0 0.0
0.551993250847 1.0 0.0
0.775996625423 1.0 0.0
1.0 0.789787709713 0.0
1.0 0.579575359821 0.0
1.0 0.41641998291 0.0
1.0 0.253264576197 0.0
1.0 0.126632288098 0.0
0.873367726803 0.0 0.0
0.746735394001 0.0 0.0
0.583580076694 0.0 0.0
0.420424699783 0.0 0.0
0.210212349892 0.0 0.0
0.505178005232 0.496900650132 0.0
0.287441875043 0.711848394702 0.0
0.703537206663 0.278724285499 0.0
0.583355390942 0.740903512502 0.0
0.251562298083 0.430362851094 0.0
0.463586352312 0.257263047547 0.0
0.747852885987 0.553121763559 0.0
0.184310997858 0.816404920466 0.0
0.809911119534 0.186050291046 0.0
0.778831047097 0.768365187857 0.0
0.231329478142 0.224883640135 0.0
0.8542672713 0.321436444328 0.0
0.680500797465 0.128925755591 0.0
0.313385974817 0.870969821347 0.0
0.126967024008 0.694412520391 0.0
0.446813081248 0.642571072242 0.0
0.560181791235 0.352556659494 0.0
0.40323240113 0.398439760474 0.0
0.609959123563 0.592540704332 0.0
0.670567593849 0.877921146746 0.0
0.121829192984 0.33642028507 0.0
0.487188611903 0.875166592437 0.0
0.122826122735 0.525826642247 0.0
0.362467608863 0.145333866979 0.0
0.856382780892 0.639723768371 0.0
0.518560559592 0.126504587211 0.0
0.860477250103 0.479982281976 0.0
0.341849219302 0.555009587697 0.0
0.690183129186 0.43236901498 0.0
0.0950215630448 0.905208252352 0.0
0.419790269223 0.768005681596 0.0
0.590322246121 0.230897606609 0.0
0.90291921115 0.0965920357565 0.0
0.801901545381 0.082804238023 0.0
0.913643957488 0.198261594289 0.0
0.189735838463 0.917676113794 0.0
0.0818816909895 0.812449262054 0.0
0.221944144987 0.60027727486 0.0
0.861151815787 0.885047417482 0.0
0.115065612408 0.140386027553 0.0
0.712462393544 0.660990961874 0.0
0.340289973374 0.294359719682 0.0

CELLS 106 424
3 25 31 37
3 25 38 31
3 24 41 51
3 26 52 35
3 24 42 52
3 35 52 50
3 26 32 36
3 26 35 32
3 24 51 39
3 27 43 33
3 28 34 44
3 27 33 64
3 28 65 34
3 17 35 16
3 20 21 36
3 24 52 40
3 28 51 41
3 10 11 37
3 7 38 6
3 30 52 42
3 14 48 33
3 23 34 47
3 12 13 43
3 5 44 4
3 15 50 48
3 22 47 49
3 22 23 47
3 15 48 14
3 27 64 42
3 28 41 65
3 24 39 42
3 33 43 62
3 34 63 44
3 1 53 8
3 1 9 53
3 27 42 39
3 5 46 44
3 12 43 45
3 24 40 41
3 25 37 54
3 29 41 40
3 10 37 59
3 7 60 38
3 20 36 57
3 17 58 35
3 25 61 38
3 32 57 36
3 32 35 58
3 28 44 46
3 27 45 43
3 15 16 50
3 22 49 21
3 31 59 37
3 31 38 60
3 30 50 52
3 29 49 47
3 30 48 50
3 13 62 43
3 4 44 63
3 14 33 62
3 23 63 34
3 21 49 36
3 16 35 50
3 5 6 46
3 12 45 11
3 3 56 18
3 3 19 56
3 28 61 51
3 28 46 61
3 25 39 51
3 11 45 37
3 6 38 46
3 26 40 52
3 26 36 55
3 25 54 39
3 37 45 54
3 26 55 40
3 7 8 60
3 10 59 9
3 27 39 54
3 2 62 13
3 0 4 63
3 29 40 55
3 2 14 62
3 0 63 23
3 20 57 19
3 17 18 58
3 36 49 55
3 27 54 45
3 38 61 46
3 29 55 49
3 8 53 60
3 9 59 53
3 29 47 65
3 30 64 48
3 29 65 41
3 30 42 64
3 25 51 61
3 34 65 47
3 33 48 64
3 31 53 59
3 31 60 53
3 19 57 56
3 18 56 58
3 32 56 57
3 32 58 56

CELL_TYPES 106
5 5 5 5 5 5 5 5 5 5 5 5 5 5 5 5 5 5 5 5 5 5 5 5 5 5 5 5 5 5 5 5 5 5 5 5 5 5 5 5 5 5 5 5 5 5 5 5 5 5 5 5 5 5 5 5 5 5 5 5 5 5 5 5 5 5 5 5 5 5 5 5 5 5 5 5 5 5 5 5 5 5 5 5 5 5 5 5 5 5 5 5 5 5 5 5 5 5 5 5 5 5 5 5 5 5 

POINT_DATA 66
