# vtk DataFile Version 1.0
2D Simulation C++
ASCII
DATASET UNSTRUCTURED_GRID
FIELD FieldData 1
NODES 1 2 int
66 106

POINTS 66 double
0.0 0.0 0.0
0.0 1.0 0.0
1.0 1.0 0.0
1.0 0.0 0.0
0.0 0.224003374577 0.0
0.0 0.448006749153 0.0
0.0 0.608711063862 0.0
0.0 0.769415378571 0.0
0.0 0.884707689285 0.0
0.115292325616 1.0 0.0
0.230584651232 1.0 0.0
0.391288936138 1.0 0.0
0.551993250847 1.0 0.0
0.775996625423 1.0 0.0
1.0 0.789787709713 0.0
1.0 0.579575359821 0.0
1.0 0.41641998291 0.0
1.0 0.253264576197 0.0
1.0 0.126632288098 0.0
0.873367726803 0.0 0.0
0.746735394001 0.0 0.0
0.583580076694 0.0 0.0
0.420424699783 0.0 0.0
0.210212349892 0.0 0.0
0.531108356144 0.486253360363 0.0
0.317266512711 0.686389042445 0.0
0.698147569411 0.282010927076 0.0
0.609157313393 0.742044304658 0.0
0.263909028712 0.39509295248 0.0
0.46263459508 0.247282387068 0.0
0.758861595075 0.564266444507 0.0
0.203140814684 0.798243579008 0.0
0.799224424911 0.194272632927 0.0
0.794214242848 0.772893687558 0.0
0.231951727268 0.207853209608 0.0
0.85113226951 0.333133182687 0.0
0.670549935947 0.128534979286 0.0
0.331308808954 0.860393831674 0.0
0.141263506535 0.670121640439 0.0
0.483390995177 0.631780741942 0.0
0.567492390662 0.34846236663 0.0
0.422759765381 0.383213121151 0.0
0.630549141595 0.587357863462 0.0
0.679265943041 0.881618467739 0.0
0.12088206024 0.322078953302 0.0
0.502927454155 0.874356754408 0.0
0.127870359602 0.498636913805 0.0
0.357275716114 0.133862917922 0.0
0.867377833511 0.650099820907 0.0
0.511551691421 0.119584782027 0.0
0.863881990163 0.493727704164 0.0
0.3761113922 0.524342799433 0.0
0.700604664922 0.43959961955 0.0
0.101376988506 0.899045312688 0.0
0.447694612003 0.759321513767 0.0
0.583194930336 0.224626396805 0.0
0.897461329449 0.101042958154 0.0
0.793866178735 0.0864648283826 0.0
0.907695524843 0.206697859352 0.0
0.201402087537 0.909265505442 0.0
0.0913991822157 0.799262227696 0.0
0.24472483904 0.555731473237 0.0
0.856699644077 0.890281979177 0.0
0.111187618058 0.144139374152 0.0
0.729741731104 0.667492343082 0.0
0.344325298206 0.275045628865 0.0

CELLS 106 424
3 25 31 37
3 25 38 31
3 24 41 51
3 26 52 35
3 24 42 52
3 35 52 50
3 26 32 36
3 26 35 32
3 24 51 39
3 27 43 33
3 28 34 44
3 27 33 64
3 28 65 34
3 17 35 16
3 20 21 36
3 24 52 40
3 28 51 41
3 10 11 37
3 7 38 6
3 30 52 42
3 14 48 33
3 23 34 47
3 12 13 43
3 5 44 4
3 15 50 48
3 22 47 49
3 22 23 47
3 15 48 14
3 27 64 42
3 28 41 65
3 24 39 42
3 33 43 62
3 34 63 44
3 1 53 8
3 1 9 53
3 27 42 39
3 5 46 44
3 12 43 45
3 24 40 41
3 25 37 54
3 29 41 40
3 10 37 59
3 7 60 38
3 20 36 57
3 17 58 35
3 25 61 38
3 32 57 36
3 32 35 58
3 28 44 46
3 27 45 43
3 15 16 50
3 22 49 21
3 31 59 37
3 31 38 60
3 30 50 52
3 29 49 47
3 30 48 50
3 13 62 43
3 4 44 63
3 14 33 62
3 23 63 34
3 21 49 36
3 16 35 50
3 5 6 46
3 12 45 11
3 3 56 18
3 3 19 56
3 28 61 51
3 28 46 61
3 25 39 51
3 11 45 37
3 6 38 46
3 26 40 52
3 26 36 55
3 25 54 39
3 37 45 54
3 26 55 40
3 7 8 60
3 10 59 9
3 27 39 54
3 2 62 13
3 0 4 63
3 29 40 55
3 2 14 62
3 0 63 23
3 20 57 19
3 17 18 58
3 36 49 55
3 27 54 45
3 38 61 46
3 29 55 49
3 8 53 60
3 9 59 53
3 29 47 65
3 30 64 48
3 29 65 41
3 30 42 64
3 25 51 61
3 34 65 47
3 33 48 64
3 31 53 59
3 31 60 53
3 19 57 56
3 18 56 58
3 32 56 57
3 32 58 56

CELL_TYPES 106
5 5 5 5 5 5 5 5 5 5 5 5 5 5 5 5 5 5 5 5 5 5 5 5 5 5 5 5 5 5 5 5 5 5 5 5 5 5 5 5 5 5 5 5 5 5 5 5 5 5 5 5 5 5 5 5 5 5 5 5 5 5 5 5 5 5 5 5 5 5 5 5 5 5 5 5 5 5 5 5 5 5 5 5 5 5 5 5 5 5 5 5 5 5 5 5 5 5 5 5 5 5 5 5 5 5 

POINT_DATA 66
