# vtk DataFile Version 1.0
2D Simulation C++
ASCII
DATASET UNSTRUCTURED_GRID
FIELD FieldData 1
NODES 1 2 int
66 106

POINTS 66 double
0.0 0.0 0.0
0.0 1.0 0.0
1.0 1.0 0.0
1.0 0.0 0.0
0.0 0.224003374577 0.0
0.0 0.448006749153 0.0
0.0 0.608711063862 0.0
0.0 0.769415378571 0.0
0.0 0.884707689285 0.0
0.115292325616 1.0 0.0
0.230584651232 1.0 0.0
0.391288936138 1.0 0.0
0.551993250847 1.0 0.0
0.775996625423 1.0 0.0
1.0 0.789787709713 0.0
1.0 0.579575359821 0.0
1.0 0.41641998291 0.0
1.0 0.253264576197 0.0
1.0 0.126632288098 0.0
0.873367726803 0.0 0.0
0.746735394001 0.0 0.0
0.583580076694 0.0 0.0
0.420424699783 0.0 0.0
0.210212349892 0.0 0.0
0.530085817546 0.486907258919 0.0
0.316319574306 0.687134599968 0.0
0.697709850812 0.282270670674 0.0
0.608323549524 0.742344659242 0.0
0.263203836825 0.395822174997 0.0
0.462085017101 0.247870737025 0.0
0.758098203853 0.564443971041 0.0
0.202515204462 0.798788780607 0.0
0.799045317301 0.19436018974 0.0
0.793743268812 0.772944249235 0.0
0.231621754627 0.208275628607 0.0
0.850841547438 0.33323887103 0.0
0.670370745121 0.128685229009 0.0
0.330753672173 0.860792453172 0.0
0.140726018525 0.670629278316 0.0
0.482278922775 0.632444254192 0.0
0.566762410453 0.349010765909 0.0
0.421901690877 0.384005910204 0.0
0.629535071107 0.587732299069 0.0
0.678912152543 0.881686850176 0.0
0.12060068133 0.322404394781 0.0
0.502429967716 0.874577995369 0.0
0.127434969273 0.499101310251 0.0
0.357004852119 0.134237909503 0.0
0.866937575511 0.650146644896 0.0
0.511321004289 0.119868929205 0.0
0.863481429445 0.493810029922 0.0
0.375053842272 0.525204918029 0.0
0.699880039108 0.439907093719 0.0
0.101091848744 0.899311679377 0.0
0.446784036153 0.759855708545 0.0
0.582769558446 0.225017428823 0.0
0.897413172442 0.101064291835 0.0
0.793792399 0.0865068798097 0.0
0.90759782106 0.206737474614 0.0
0.201037170921 0.909560014307 0.0
0.0910552214767 0.799608646321 0.0
0.243871990675 0.556525017902 0.0
0.856518478339 0.890262453542 0.0
0.111092421793 0.144297017778 0.0
0.728942553825 0.667657069309 0.0
0.343731689639 0.275729487869 0.0

CELLS 106 424
3 25 31 37
3 25 38 31
3 24 41 51
3 26 52 35
3 24 42 52
3 35 52 50
3 26 32 36
3 26 35 32
3 24 51 39
3 27 43 33
3 28 34 44
3 27 33 64
3 28 65 34
3 17 35 16
3 20 21 36
3 24 52 40
3 28 51 41
3 10 11 37
3 7 38 6
3 30 52 42
3 14 48 33
3 23 34 47
3 12 13 43
3 5 44 4
3 15 50 48
3 22 47 49
3 22 23 47
3 15 48 14
3 27 64 42
3 28 41 65
3 24 39 42
3 33 43 62
3 34 63 44
3 1 53 8
3 1 9 53
3 27 42 39
3 5 46 44
3 12 43 45
3 24 40 41
3 25 37 54
3 29 41 40
3 10 37 59
3 7 60 38
3 20 36 57
3 17 58 35
3 25 61 38
3 32 57 36
3 32 35 58
3 28 44 46
3 27 45 43
3 15 16 50
3 22 49 21
3 31 59 37
3 31 38 60
3 30 50 52
3 29 49 47
3 30 48 50
3 13 62 43
3 4 44 63
3 14 33 62
3 23 63 34
3 21 49 36
3 16 35 50
3 5 6 46
3 12 45 11
3 3 56 18
3 3 19 56
3 28 61 51
3 28 46 61
3 25 39 51
3 11 45 37
3 6 38 46
3 26 40 52
3 26 36 55
3 25 54 39
3 37 45 54
3 26 55 40
3 7 8 60
3 10 59 9
3 27 39 54
3 2 62 13
3 0 4 63
3 29 40 55
3 2 14 62
3 0 63 23
3 20 57 19
3 17 18 58
3 36 49 55
3 27 54 45
3 38 61 46
3 29 55 49
3 8 53 60
3 9 59 53
3 29 47 65
3 30 64 48
3 29 65 41
3 30 42 64
3 25 51 61
3 34 65 47
3 33 48 64
3 31 53 59
3 31 60 53
3 19 57 56
3 18 56 58
3 32 56 57
3 32 58 56

CELL_TYPES 106
5 5 5 5 5 5 5 5 5 5 5 5 5 5 5 5 5 5 5 5 5 5 5 5 5 5 5 5 5 5 5 5 5 5 5 5 5 5 5 5 5 5 5 5 5 5 5 5 5 5 5 5 5 5 5 5 5 5 5 5 5 5 5 5 5 5 5 5 5 5 5 5 5 5 5 5 5 5 5 5 5 5 5 5 5 5 5 5 5 5 5 5 5 5 5 5 5 5 5 5 5 5 5 5 5 5 

POINT_DATA 66
