# vtk DataFile Version 1.0
2D Simulation C++
ASCII
DATASET UNSTRUCTURED_GRID
FIELD FieldData 1
NODES 1 2 int
66 106

POINTS 66 double
0.0 0.0 0.0
0.0 1.0 0.0
1.0 1.0 0.0
1.0 0.0 0.0
0.0 0.224003374577 0.0
0.0 0.448006749153 0.0
0.0 0.608711063862 0.0
0.0 0.769415378571 0.0
0.0 0.884707689285 0.0
0.115292325616 1.0 0.0
0.230584651232 1.0 0.0
0.391288936138 1.0 0.0
0.551993250847 1.0 0.0
0.775996625423 1.0 0.0
1.0 0.789787709713 0.0
1.0 0.579575359821 0.0
1.0 0.41641998291 0.0
1.0 0.253264576197 0.0
1.0 0.126632288098 0.0
0.873367726803 0.0 0.0
0.746735394001 0.0 0.0
0.583580076694 0.0 0.0
0.420424699783 0.0 0.0
0.210212349892 0.0 0.0
0.531007487957 0.486318435576 0.0
0.317175107905 0.686460222379 0.0
0.69810162658 0.282038920559 0.0
0.609076741642 0.742075548679 0.0
0.263839162614 0.395162059771 0.0
0.462577949112 0.247339990658 0.0
0.758786559917 0.564287109118 0.0
0.203080813399 0.798295043278 0.0
0.799204200152 0.194283418289 0.0
0.794168797074 0.772900621775 0.0
0.231918109035 0.207893064963 0.0
0.851102138848 0.333145594786 0.0
0.670529990224 0.128551153325 0.0
0.331255486354 0.860431989599 0.0
0.141211695024 0.670169363258 0.0
0.483283066005 0.631846079068 0.0
0.56741826655 0.348517604145 0.0
0.422674035991 0.383289981693 0.0
0.630450052148 0.587397184182 0.0
0.679231969806 0.881626375008 0.0
0.120853823244 0.322109367537 0.0
0.502879600966 0.874378961218 0.0
0.127827666935 0.498680482645 0.0
0.357247569857 0.133898957275 0.0
0.867334845073 0.650106442748 0.0
0.511527004325 0.119612985511 0.0
0.863842039601 0.493737927306 0.0
0.376007983139 0.524425661873 0.0
0.700532239905 0.439632554646 0.0
0.101349744696 0.899070335348 0.0
0.447606873359 0.759373759138 0.0
0.583149908819 0.224666192577 0.0
0.897455190917 0.101046201016 0.0
0.793857165874 0.0864702086474 0.0
0.907684427066 0.206703186274 0.0
0.201367146292 0.909293305064 0.0
0.0913662517643 0.799294697306 0.0
0.244641894947 0.555806498434 0.0
0.85668236984 0.890280914907 0.0
0.111177655566 0.144153937856 0.0
0.729664068386 0.667511542858 0.0
0.344265107504 0.275111042885 0.0

CELLS 106 424
3 25 31 37
3 25 38 31
3 24 41 51
3 26 52 35
3 24 42 52
3 35 52 50
3 26 32 36
3 26 35 32
3 24 51 39
3 27 43 33
3 28 34 44
3 27 33 64
3 28 65 34
3 17 35 16
3 20 21 36
3 24 52 40
3 28 51 41
3 10 11 37
3 7 38 6
3 30 52 42
3 14 48 33
3 23 34 47
3 12 13 43
3 5 44 4
3 15 50 48
3 22 47 49
3 22 23 47
3 15 48 14
3 27 64 42
3 28 41 65
3 24 39 42
3 33 43 62
3 34 63 44
3 1 53 8
3 1 9 53
3 27 42 39
3 5 46 44
3 12 43 45
3 24 40 41
3 25 37 54
3 29 41 40
3 10 37 59
3 7 60 38
3 20 36 57
3 17 58 35
3 25 61 38
3 32 57 36
3 32 35 58
3 28 44 46
3 27 45 43
3 15 16 50
3 22 49 21
3 31 59 37
3 31 38 60
3 30 50 52
3 29 49 47
3 30 48 50
3 13 62 43
3 4 44 63
3 14 33 62
3 23 63 34
3 21 49 36
3 16 35 50
3 5 6 46
3 12 45 11
3 3 56 18
3 3 19 56
3 28 61 51
3 28 46 61
3 25 39 51
3 11 45 37
3 6 38 46
3 26 40 52
3 26 36 55
3 25 54 39
3 37 45 54
3 26 55 40
3 7 8 60
3 10 59 9
3 27 39 54
3 2 62 13
3 0 4 63
3 29 40 55
3 2 14 62
3 0 63 23
3 20 57 19
3 17 18 58
3 36 49 55
3 27 54 45
3 38 61 46
3 29 55 49
3 8 53 60
3 9 59 53
3 29 47 65
3 30 64 48
3 29 65 41
3 30 42 64
3 25 51 61
3 34 65 47
3 33 48 64
3 31 53 59
3 31 60 53
3 19 57 56
3 18 56 58
3 32 56 57
3 32 58 56

CELL_TYPES 106
5 5 5 5 5 5 5 5 5 5 5 5 5 5 5 5 5 5 5 5 5 5 5 5 5 5 5 5 5 5 5 5 5 5 5 5 5 5 5 5 5 5 5 5 5 5 5 5 5 5 5 5 5 5 5 5 5 5 5 5 5 5 5 5 5 5 5 5 5 5 5 5 5 5 5 5 5 5 5 5 5 5 5 5 5 5 5 5 5 5 5 5 5 5 5 5 5 5 5 5 5 5 5 5 5 5 

POINT_DATA 66
