# vtk DataFile Version 1.0
2D Simulation C++
ASCII
DATASET UNSTRUCTURED_GRID
FIELD FieldData 1
NODES 1 2 int
73 120

POINTS 73 double
0.0 0.0 0.0
0.0 1.0 0.0
1.0 1.0 0.0
1.0 0.0 0.0
0.0 0.224003374577 0.0
0.0 0.448006749153 0.0
0.0 0.608711063862 0.0
0.0 0.769415378571 0.0
0.0 0.884707689285 0.0
0.115292325616 1.0 0.0
0.230584651232 1.0 0.0
0.391288936138 1.0 0.0
0.551993250847 1.0 0.0
0.775996625423 1.0 0.0
1.0 0.789787709713 0.0
1.0 0.579575359821 0.0
1.0 0.41641998291 0.0
1.0 0.253264576197 0.0
1.0 0.126632288098 0.0
0.873367726803 0.0 0.0
0.746735394001 0.0 0.0
0.583580076694 0.0 0.0
0.420424699783 0.0 0.0
0.210212349892 0.0 0.0
0.405362319516 0.594646256069 0.0
0.596051182566 0.403946011759 0.0
0.300472906548 0.304104390025 0.0
0.695844131167 0.699647628262 0.0
0.210125773097 0.789955867834 0.0
0.790806578609 0.209252978568 0.0
0.81966946091 0.433761386931 0.0
0.566304029506 0.180346039498 0.0
0.182484218012 0.573212852327 0.0
0.426832029267 0.817584042593 0.0
0.107966936204 0.892089614169 0.0
0.101743688081 0.778151536001 0.0
0.221942023514 0.89829136924 0.0
0.835379010847 0.841037999631 0.0
0.654892001477 0.868854623131 0.0
0.131271543534 0.345142099015 0.0
0.159025084203 0.164631607353 0.0
0.500428326636 0.499548222671 0.0
0.459920178495 0.362796050771 0.0
0.363233005105 0.460619846055 0.0
0.539326922378 0.636845132754 0.0
0.637137736373 0.540127561145 0.0
0.333149422196 0.133388290569 0.0
0.866582115854 0.666907507031 0.0
0.572725664235 0.281805895149 0.0
0.44798813049 0.229587593542 0.0
0.770362941929 0.552085147472 0.0
0.718198416381 0.427334570632 0.0
0.0946711721821 0.654466715742 0.0
0.105014449197 0.509742899856 0.0
0.4902993233 0.895066755018 0.0
0.345612799841 0.905348988928 0.0
0.229604291449 0.453970392554 0.0
0.284065267661 0.573799563259 0.0
0.426213227449 0.715999962407 0.0
0.546020955195 0.770548339378 0.0
0.890884809111 0.10913843592 0.0
0.900078281163 0.229086765387 0.0
0.770947056767 0.099957770894 0.0
0.907067707555 0.35880855801 0.0
0.89556183699 0.505289363319 0.0
0.494759136413 0.104426500343 0.0
0.641226542154 0.092959045156 0.0
0.308592460006 0.691457562764 0.0
0.321604495747 0.80220830456 0.0
0.197832624833 0.678482099288 0.0
0.675640816483 0.194881714659 0.0
0.80517283841 0.324424928381 0.0
0.693379525273 0.306678975747 0.0

CELLS 120 480
3 1 34 8
3 34 35 8
3 34 28 35
3 8 35 7
3 1 9 34
3 9 36 34
3 9 10 36
3 34 36 28
3 2 37 13
3 37 38 13
3 37 27 38
3 13 38 12
3 0 4 40
3 4 39 40
3 4 5 39
3 40 39 26
3 24 41 43
3 41 42 43
3 41 25 42
3 43 42 26
3 24 44 41
3 44 45 41
3 44 27 45
3 41 45 25
3 0 40 23
3 40 46 23
3 40 26 46
3 23 46 22
3 2 14 37
3 14 47 37
3 14 15 47
3 37 47 27
3 25 48 42
3 48 49 42
3 48 31 49
3 42 49 26
3 25 45 51
3 45 50 51
3 45 27 50
3 51 50 30
3 5 6 53
3 6 52 53
3 6 7 52
3 53 52 32
3 10 11 55
3 11 54 55
3 11 12 54
3 55 54 33
3 24 43 57
3 43 56 57
3 43 26 56
3 57 56 32
3 24 58 44
3 58 59 44
3 58 33 59
3 44 59 27
3 3 60 18
3 60 61 18
3 60 29 61
3 18 61 17
3 3 19 60
3 19 62 60
3 19 20 62
3 60 62 29
3 5 53 39
3 53 56 39
3 53 32 56
3 39 56 26
3 12 38 54
3 38 59 54
3 38 27 59
3 54 59 33
3 15 16 64
3 16 63 64
3 16 17 63
3 64 63 30
3 20 21 66
3 21 65 66
3 21 22 65
3 66 65 31
3 22 46 65
3 46 49 65
3 46 26 49
3 65 49 31
3 15 64 47
3 64 50 47
3 64 30 50
3 47 50 27
3 24 67 58
3 67 68 58
3 67 28 68
3 58 68 33
3 24 57 67
3 57 69 67
3 57 32 69
3 67 69 28
3 7 35 52
3 35 69 52
3 35 28 69
3 52 69 32
3 10 55 36
3 55 68 36
3 55 33 68
3 36 68 28
3 20 66 62
3 66 70 62
3 66 31 70
3 62 70 29
3 17 61 63
3 61 71 63
3 61 29 71
3 63 71 30
3 25 72 48
3 72 70 48
3 72 29 70
3 48 70 31
3 25 51 72
3 51 71 72
3 51 30 71
3 72 71 29

CELL_TYPES 120
5 5 5 5 5 5 5 5 5 5 5 5 5 5 5 5 5 5 5 5 5 5 5 5 5 5 5 5 5 5 5 5 5 5 5 5 5 5 5 5 5 5 5 5 5 5 5 5 5 5 5 5 5 5 5 5 5 5 5 5 5 5 5 5 5 5 5 5 5 5 5 5 5 5 5 5 5 5 5 5 5 5 5 5 5 5 5 5 5 5 5 5 5 5 5 5 5 5 5 5 5 5 5 5 5 5 5 5 5 5 5 5 5 5 5 5 5 5 5 5 

POINT_DATA 73
