# vtk DataFile Version 1.0
2D Simulation C++
ASCII
DATASET UNSTRUCTURED_GRID
FIELD FieldData 1
NODES 1 2 int
73 120

POINTS 73 double
0.0 0.0 0.0
0.0 1.0 0.0
1.0 1.0 0.0
1.0 0.0 0.0
0.0 0.224003374577 0.0
0.0 0.448006749153 0.0
0.0 0.608711063862 0.0
0.0 0.769415378571 0.0
0.0 0.884707689285 0.0
0.115292325616 1.0 0.0
0.230584651232 1.0 0.0
0.391288936138 1.0 0.0
0.551993250847 1.0 0.0
0.775996625423 1.0 0.0
1.0 0.789787709713 0.0
1.0 0.579575359821 0.0
1.0 0.41641998291 0.0
1.0 0.253264576197 0.0
1.0 0.126632288098 0.0
0.873367726803 0.0 0.0
0.746735394001 0.0 0.0
0.583580076694 0.0 0.0
0.420424699783 0.0 0.0
0.210212349892 0.0 0.0
0.405085214851 0.594941203832 0.0
0.593252594893 0.406771375698 0.0
0.297400639542 0.302286821799 0.0
0.697713865404 0.702634552629 0.0
0.209486498923 0.790542048881 0.0
0.787401069764 0.212621771406 0.0
0.818562080104 0.438695852942 0.0
0.561337527287 0.181444112445 0.0
0.181017166314 0.570968524281 0.0
0.429049810591 0.819020691952 0.0
0.107533819 0.892480137587 0.0
0.100925423222 0.777841142984 0.0
0.222176520496 0.899094682717 0.0
0.836676200501 0.842532201414 0.0
0.656762023422 0.870477853442 0.0
0.129547098987 0.343242114489 0.0
0.157483861605 0.163324131272 0.0
0.499243178262 0.50077904933 0.0
0.456362896774 0.362928835966 0.0
0.361107456373 0.459446287983 0.0
0.540564928529 0.638928125952 0.0
0.637077960534 0.543673149735 0.0
0.330709118732 0.13232235376 0.0
0.867675780384 0.669311645984 0.0
0.56788593536 0.283574151132 0.0
0.443502276889 0.229254204339 0.0
0.770745792995 0.556532401309 0.0
0.716438440529 0.432151124777 0.0
0.0938372262735 0.653155774438 0.0
0.103863729347 0.507807929977 0.0
0.492200950728 0.896162048145 0.0
0.346858544109 0.906186239079 0.0
0.227499937677 0.451424376623 0.0
0.282664590279 0.572412546097 0.0
0.427607722809 0.717372824787 0.0
0.548585763461 0.77253967836 0.0
0.889198561609 0.110811734262 0.0
0.898326423679 0.231700106884 0.0
0.768316802004 0.101684885341 0.0
0.905944535587 0.361770809193 0.0
0.895586389051 0.508227294835 0.0
0.49179466349 0.104413415252 0.0
0.638247855645 0.0940616900511 0.0
0.308243984287 0.691787569284 0.0
0.322381476342 0.803382255854 0.0
0.196651740064 0.67764438465 0.0
0.67102965422 0.197372311935 0.0
0.802644158835 0.329001333492 0.0
0.689521364975 0.310505993151 0.0

CELLS 120 480
3 1 34 8
3 34 35 8
3 34 28 35
3 8 35 7
3 1 9 34
3 9 36 34
3 9 10 36
3 34 36 28
3 2 37 13
3 37 38 13
3 37 27 38
3 13 38 12
3 0 4 40
3 4 39 40
3 4 5 39
3 40 39 26
3 24 41 43
3 41 42 43
3 41 25 42
3 43 42 26
3 24 44 41
3 44 45 41
3 44 27 45
3 41 45 25
3 0 40 23
3 40 46 23
3 40 26 46
3 23 46 22
3 2 14 37
3 14 47 37
3 14 15 47
3 37 47 27
3 25 48 42
3 48 49 42
3 48 31 49
3 42 49 26
3 25 45 51
3 45 50 51
3 45 27 50
3 51 50 30
3 5 6 53
3 6 52 53
3 6 7 52
3 53 52 32
3 10 11 55
3 11 54 55
3 11 12 54
3 55 54 33
3 24 43 57
3 43 56 57
3 43 26 56
3 57 56 32
3 24 58 44
3 58 59 44
3 58 33 59
3 44 59 27
3 3 60 18
3 60 61 18
3 60 29 61
3 18 61 17
3 3 19 60
3 19 62 60
3 19 20 62
3 60 62 29
3 5 53 39
3 53 56 39
3 53 32 56
3 39 56 26
3 12 38 54
3 38 59 54
3 38 27 59
3 54 59 33
3 15 16 64
3 16 63 64
3 16 17 63
3 64 63 30
3 20 21 66
3 21 65 66
3 21 22 65
3 66 65 31
3 22 46 65
3 46 49 65
3 46 26 49
3 65 49 31
3 15 64 47
3 64 50 47
3 64 30 50
3 47 50 27
3 24 67 58
3 67 68 58
3 67 28 68
3 58 68 33
3 24 57 67
3 57 69 67
3 57 32 69
3 67 69 28
3 7 35 52
3 35 69 52
3 35 28 69
3 52 69 32
3 10 55 36
3 55 68 36
3 55 33 68
3 36 68 28
3 20 66 62
3 66 70 62
3 66 31 70
3 62 70 29
3 17 61 63
3 61 71 63
3 61 29 71
3 63 71 30
3 25 72 48
3 72 70 48
3 72 29 70
3 48 70 31
3 25 51 72
3 51 71 72
3 51 30 71
3 72 71 29

CELL_TYPES 120
5 5 5 5 5 5 5 5 5 5 5 5 5 5 5 5 5 5 5 5 5 5 5 5 5 5 5 5 5 5 5 5 5 5 5 5 5 5 5 5 5 5 5 5 5 5 5 5 5 5 5 5 5 5 5 5 5 5 5 5 5 5 5 5 5 5 5 5 5 5 5 5 5 5 5 5 5 5 5 5 5 5 5 5 5 5 5 5 5 5 5 5 5 5 5 5 5 5 5 5 5 5 5 5 5 5 5 5 5 5 5 5 5 5 5 5 5 5 5 5 

POINT_DATA 73
