# vtk DataFile Version 1.0
2D Simulation C++
ASCII
DATASET UNSTRUCTURED_GRID
FIELD FieldData 1
NODES 1 2 int
66 106

POINTS 66 double
0.0 0.0 0.0
0.0 1.0 0.0
1.0 1.0 0.0
1.0 0.0 0.0
0.0 0.224003374577 0.0
0.0 0.448006749153 0.0
0.0 0.608711063862 0.0
0.0 0.769415378571 0.0
0.0 0.884707689285 0.0
0.115292325616 1.0 0.0
0.230584651232 1.0 0.0
0.391288936138 1.0 0.0
0.551993250847 1.0 0.0
0.775996625423 1.0 0.0
1.0 0.789787709713 0.0
1.0 0.579575359821 0.0
1.0 0.41641998291 0.0
1.0 0.253264576197 0.0
1.0 0.126632288098 0.0
0.873367726803 0.0 0.0
0.746735394001 0.0 0.0
0.583580076694 0.0 0.0
0.420424699783 0.0 0.0
0.210212349892 0.0 0.0
0.516757961079 0.493561226826 0.0
0.301104984761 0.700531107786 0.0
0.697884076426 0.281352815843 0.0
0.595372264408 0.743129811901 0.0
0.25519567047 0.410586411539 0.0
0.460000119479 0.255198526336 0.0
0.749303899708 0.560826229913 0.0
0.192335943936 0.809033243551 0.0
0.802180958101 0.191481846438 0.0
0.786730107054 0.770461549925 0.0
0.230130884517 0.216642870765 0.0
0.850400636103 0.330324451938 0.0
0.673008596181 0.128513774945 0.0
0.321633335973 0.867144348126 0.0
0.13223194275 0.681729647624 0.0
0.465032653994 0.64033705519 0.0
0.561290512412 0.353352409021 0.0
0.412522325865 0.395439868923 0.0
0.615912935363 0.588387472622 0.0
0.673507216799 0.880504630902 0.0
0.118864722032 0.329618755327 0.0
0.494356920618 0.876172056438 0.0
0.122326354714 0.509934144879 0.0
0.356891660566 0.140086565583 0.0
0.86140643909 0.646911917224 0.0
0.51279705385 0.123073972202 0.0
0.859950688289 0.490236113515 0.0
0.35955740636 0.539869512031 0.0
0.692876580704 0.4387523036 0.0
0.0964561310811 0.904153967825 0.0
0.431928090582 0.76640500785 0.0
0.583728611229 0.227902922918 0.0
0.89964721099 0.099119443842 0.0
0.796498201263 0.0849565302703 0.0
0.909499856569 0.204169540919 0.0
0.195027463579 0.91467452893 0.0
0.0854253108466 0.806691913561 0.0
0.231348182274 0.573619631806 0.0
0.854034227336 0.888593004425 0.0
0.111539599897 0.147550682517 0.0
0.718025222989 0.664912701168 0.0
0.339521652212 0.287229665569 0.0

CELLS 106 424
3 25 31 37
3 25 38 31
3 24 41 51
3 26 52 35
3 24 42 52
3 35 52 50
3 26 32 36
3 26 35 32
3 24 51 39
3 27 43 33
3 28 34 44
3 27 33 64
3 28 65 34
3 17 35 16
3 20 21 36
3 24 52 40
3 28 51 41
3 10 11 37
3 7 38 6
3 30 52 42
3 14 48 33
3 23 34 47
3 12 13 43
3 5 44 4
3 15 50 48
3 22 47 49
3 22 23 47
3 15 48 14
3 27 64 42
3 28 41 65
3 24 39 42
3 33 43 62
3 34 63 44
3 1 53 8
3 1 9 53
3 27 42 39
3 5 46 44
3 12 43 45
3 24 40 41
3 25 37 54
3 29 41 40
3 10 37 59
3 7 60 38
3 20 36 57
3 17 58 35
3 25 61 38
3 32 57 36
3 32 35 58
3 28 44 46
3 27 45 43
3 15 16 50
3 22 49 21
3 31 59 37
3 31 38 60
3 30 50 52
3 29 49 47
3 30 48 50
3 13 62 43
3 4 44 63
3 14 33 62
3 23 63 34
3 21 49 36
3 16 35 50
3 5 6 46
3 12 45 11
3 3 56 18
3 3 19 56
3 28 61 51
3 28 46 61
3 25 39 51
3 11 45 37
3 6 38 46
3 26 40 52
3 26 36 55
3 25 54 39
3 37 45 54
3 26 55 40
3 7 8 60
3 10 59 9
3 27 39 54
3 2 62 13
3 0 4 63
3 29 40 55
3 2 14 62
3 0 63 23
3 20 57 19
3 17 18 58
3 36 49 55
3 27 54 45
3 38 61 46
3 29 55 49
3 8 53 60
3 9 59 53
3 29 47 65
3 30 64 48
3 29 65 41
3 30 42 64
3 25 51 61
3 34 65 47
3 33 48 64
3 31 53 59
3 31 60 53
3 19 57 56
3 18 56 58
3 32 56 57
3 32 58 56

CELL_TYPES 106
5 5 5 5 5 5 5 5 5 5 5 5 5 5 5 5 5 5 5 5 5 5 5 5 5 5 5 5 5 5 5 5 5 5 5 5 5 5 5 5 5 5 5 5 5 5 5 5 5 5 5 5 5 5 5 5 5 5 5 5 5 5 5 5 5 5 5 5 5 5 5 5 5 5 5 5 5 5 5 5 5 5 5 5 5 5 5 5 5 5 5 5 5 5 5 5 5 5 5 5 5 5 5 5 5 5 

POINT_DATA 66
