# vtk DataFile Version 1.0
2D Simulation C++
ASCII
DATASET UNSTRUCTURED_GRID
FIELD FieldData 1
NODES 1 2 int
73 120

POINTS 73 double
0.0 0.0 0.0
0.0 1.0 0.0
1.0 1.0 0.0
1.0 0.0 0.0
0.0 0.224003374577 0.0
0.0 0.448006749153 0.0
0.0 0.608711063862 0.0
0.0 0.769415378571 0.0
0.0 0.884707689285 0.0
0.115292325616 1.0 0.0
0.230584651232 1.0 0.0
0.391288936138 1.0 0.0
0.551993250847 1.0 0.0
0.775996625423 1.0 0.0
1.0 0.789787709713 0.0
1.0 0.579575359821 0.0
1.0 0.41641998291 0.0
1.0 0.253264576197 0.0
1.0 0.126632288098 0.0
0.873367726803 0.0 0.0
0.746735394001 0.0 0.0
0.583580076694 0.0 0.0
0.420424699783 0.0 0.0
0.210212349892 0.0 0.0
0.404813954054 0.59520969516 0.0
0.592421980785 0.407599954038 0.0
0.296696066518 0.30217989405 0.0
0.697825874388 0.703328478016 0.0
0.209453488364 0.790566380376 0.0
0.786622289684 0.213394278527 0.0
0.81820560678 0.439682152768 0.0
0.560341726114 0.181802265148 0.0
0.180620889369 0.570699214601 0.0
0.429314699843 0.819405896006 0.0
0.107528911816 0.892479994046 0.0
0.100834803951 0.777762011676 0.0
0.22224923763 0.899179106622 0.0
0.836812629025 0.842850947716 0.0
0.656951392657 0.870859610344 0.0
0.129156611217 0.343052980169 0.0
0.157159731166 0.163189514801 0.0
0.498703858892 0.501317755787 0.0
0.455455184153 0.363258434221 0.0
0.360472885881 0.459503986265 0.0
0.540510573493 0.639554659798 0.0
0.63675341407 0.544572952957 0.0
0.330223219366 0.132243556428 0.0
0.867758396123 0.669790945425 0.0
0.566789528864 0.284167643358 0.0
0.442566969244 0.229393326834 0.0
0.770612401441 0.557457909295 0.0
0.715846146129 0.433238547775 0.0
0.093643443908 0.652989843244 0.0
0.103557617935 0.50759592419 0.0
0.492410787514 0.896459421391 0.0
0.347019501455 0.90637302265 0.0
0.226950484376 0.451184351444 0.0
0.282255661678 0.572311368634 0.0
0.427706840366 0.717772912352 0.0
0.548826172068 0.773076925169 0.0
0.888825351104 0.111181868828 0.0
0.897915018104 0.232238823939 0.0
0.767773098284 0.102093167675 0.0
0.905667873763 0.362340865523 0.0
0.895513299208 0.50878733633 0.0
0.491227790747 0.104489218079 0.0
0.637672257254 0.0943376707396 0.0
0.308135233984 0.691889524342 0.0
0.322509887449 0.803603884894 0.0
0.196421013782 0.677508686709 0.0
0.670044988067 0.198014332051 0.0
0.801999097333 0.329977493886 0.0
0.688568873525 0.311452888573 0.0

CELLS 120 480
3 1 34 8
3 34 35 8
3 34 28 35
3 8 35 7
3 1 9 34
3 9 36 34
3 9 10 36
3 34 36 28
3 2 37 13
3 37 38 13
3 37 27 38
3 13 38 12
3 0 4 40
3 4 39 40
3 4 5 39
3 40 39 26
3 24 41 43
3 41 42 43
3 41 25 42
3 43 42 26
3 24 44 41
3 44 45 41
3 44 27 45
3 41 45 25
3 0 40 23
3 40 46 23
3 40 26 46
3 23 46 22
3 2 14 37
3 14 47 37
3 14 15 47
3 37 47 27
3 25 48 42
3 48 49 42
3 48 31 49
3 42 49 26
3 25 45 51
3 45 50 51
3 45 27 50
3 51 50 30
3 5 6 53
3 6 52 53
3 6 7 52
3 53 52 32
3 10 11 55
3 11 54 55
3 11 12 54
3 55 54 33
3 24 43 57
3 43 56 57
3 43 26 56
3 57 56 32
3 24 58 44
3 58 59 44
3 58 33 59
3 44 59 27
3 3 60 18
3 60 61 18
3 60 29 61
3 18 61 17
3 3 19 60
3 19 62 60
3 19 20 62
3 60 62 29
3 5 53 39
3 53 56 39
3 53 32 56
3 39 56 26
3 12 38 54
3 38 59 54
3 38 27 59
3 54 59 33
3 15 16 64
3 16 63 64
3 16 17 63
3 64 63 30
3 20 21 66
3 21 65 66
3 21 22 65
3 66 65 31
3 22 46 65
3 46 49 65
3 46 26 49
3 65 49 31
3 15 64 47
3 64 50 47
3 64 30 50
3 47 50 27
3 24 67 58
3 67 68 58
3 67 28 68
3 58 68 33
3 24 57 67
3 57 69 67
3 57 32 69
3 67 69 28
3 7 35 52
3 35 69 52
3 35 28 69
3 52 69 32
3 10 55 36
3 55 68 36
3 55 33 68
3 36 68 28
3 20 66 62
3 66 70 62
3 66 31 70
3 62 70 29
3 17 61 63
3 61 71 63
3 61 29 71
3 63 71 30
3 25 72 48
3 72 70 48
3 72 29 70
3 48 70 31
3 25 51 72
3 51 71 72
3 51 30 71
3 72 71 29

CELL_TYPES 120
5 5 5 5 5 5 5 5 5 5 5 5 5 5 5 5 5 5 5 5 5 5 5 5 5 5 5 5 5 5 5 5 5 5 5 5 5 5 5 5 5 5 5 5 5 5 5 5 5 5 5 5 5 5 5 5 5 5 5 5 5 5 5 5 5 5 5 5 5 5 5 5 5 5 5 5 5 5 5 5 5 5 5 5 5 5 5 5 5 5 5 5 5 5 5 5 5 5 5 5 5 5 5 5 5 5 5 5 5 5 5 5 5 5 5 5 5 5 5 5 

POINT_DATA 73
