# vtk DataFile Version 1.0
2D Simulation C++
ASCII
DATASET UNSTRUCTURED_GRID
FIELD FieldData 1
NODES 1 2 int
73 120

POINTS 73 double
0.0 0.0 0.0
0.0 1.0 0.0
1.0 1.0 0.0
1.0 0.0 0.0
0.0 0.224003374577 0.0
0.0 0.448006749153 0.0
0.0 0.608711063862 0.0
0.0 0.769415378571 0.0
0.0 0.884707689285 0.0
0.115292325616 1.0 0.0
0.230584651232 1.0 0.0
0.391288936138 1.0 0.0
0.551993250847 1.0 0.0
0.775996625423 1.0 0.0
1.0 0.789787709713 0.0
1.0 0.579575359821 0.0
1.0 0.41641998291 0.0
1.0 0.253264576197 0.0
1.0 0.126632288098 0.0
0.873367726803 0.0 0.0
0.746735394001 0.0 0.0
0.583580076694 0.0 0.0
0.420424699783 0.0 0.0
0.210212349892 0.0 0.0
0.403713853384 0.596344293004 0.0
0.598836423825 0.401068092314 0.0
0.304743708102 0.30982944756 0.0
0.689825921867 0.695663432047 0.0
0.217366823056 0.782807533446 0.0
0.795402138259 0.20469233313 0.0
0.822506102742 0.423466022153 0.0
0.576686489271 0.177725493118 0.0
0.182817712352 0.578551685988 0.0
0.42114777536 0.816936760962 0.0
0.112243134539 0.887832405956 0.0
0.107151560737 0.776531962115 0.0
0.223984865601 0.892755804089 0.0
0.833664638654 0.840680651914 0.0
0.645216978651 0.864108828379 0.0
0.1374622815 0.356420781495 0.0
0.159522590835 0.166781473158 0.0
0.499543548051 0.500117898828 0.0
0.464057826854 0.365239203818 0.0
0.365129839055 0.465632873641 0.0
0.534107649557 0.635017675144 0.0
0.634294051152 0.535246757637 0.0
0.339250253041 0.137124819667 0.0
0.862822619883 0.660767610272 0.0
0.581904231182 0.280935978057 0.0
0.457677171472 0.230721093648 0.0
0.769114389913 0.542214011459 0.0
0.719355041597 0.418235712498 0.0
0.0947381433557 0.661020007975 0.0
0.103177883248 0.516340808212 0.0
0.483519220322 0.896059781554 0.0
0.340341247441 0.904569916122 0.0
0.23398370973 0.460548153603 0.0
0.285154213749 0.577182495191 0.0
0.422936956191 0.714887322414 0.0
0.537870688812 0.767636433197 0.0
0.893230894512 0.10677911695 0.0
0.902561598546 0.22411839533 0.0
0.775904074022 0.0974673792794 0.0
0.910086179333 0.350886687924 0.0
0.898068254011 0.498255204805 0.0
0.501766608473 0.101935961994 0.0
0.649137813153 0.0899493473188 0.0
0.310518105466 0.689726641229 0.0
0.322325957265 0.798704204383 0.0
0.20107779138 0.678319545378 0.0
0.683769696373 0.191131824852 0.0
0.809064970514 0.31638321346 0.0
0.698920091542 0.301443938293 0.0

CELLS 120 480
3 1 34 8
3 34 35 8
3 34 28 35
3 8 35 7
3 1 9 34
3 9 36 34
3 9 10 36
3 34 36 28
3 2 37 13
3 37 38 13
3 37 27 38
3 13 38 12
3 0 4 40
3 4 39 40
3 4 5 39
3 40 39 26
3 24 41 43
3 41 42 43
3 41 25 42
3 43 42 26
3 24 44 41
3 44 45 41
3 44 27 45
3 41 45 25
3 0 40 23
3 40 46 23
3 40 26 46
3 23 46 22
3 2 14 37
3 14 47 37
3 14 15 47
3 37 47 27
3 25 48 42
3 48 49 42
3 48 31 49
3 42 49 26
3 25 45 51
3 45 50 51
3 45 27 50
3 51 50 30
3 5 6 53
3 6 52 53
3 6 7 52
3 53 52 32
3 10 11 55
3 11 54 55
3 11 12 54
3 55 54 33
3 24 43 57
3 43 56 57
3 43 26 56
3 57 56 32
3 24 58 44
3 58 59 44
3 58 33 59
3 44 59 27
3 3 60 18
3 60 61 18
3 60 29 61
3 18 61 17
3 3 19 60
3 19 62 60
3 19 20 62
3 60 62 29
3 5 53 39
3 53 56 39
3 53 32 56
3 39 56 26
3 12 38 54
3 38 59 54
3 38 27 59
3 54 59 33
3 15 16 64
3 16 63 64
3 16 17 63
3 64 63 30
3 20 21 66
3 21 65 66
3 21 22 65
3 66 65 31
3 22 46 65
3 46 49 65
3 46 26 49
3 65 49 31
3 15 64 47
3 64 50 47
3 64 30 50
3 47 50 27
3 24 67 58
3 67 68 58
3 67 28 68
3 58 68 33
3 24 57 67
3 57 69 67
3 57 32 69
3 67 69 28
3 7 35 52
3 35 69 52
3 35 28 69
3 52 69 32
3 10 55 36
3 55 68 36
3 55 33 68
3 36 68 28
3 20 66 62
3 66 70 62
3 66 31 70
3 62 70 29
3 17 61 63
3 61 71 63
3 61 29 71
3 63 71 30
3 25 72 48
3 72 70 48
3 72 29 70
3 48 70 31
3 25 51 72
3 51 71 72
3 51 30 71
3 72 71 29

CELL_TYPES 120
5 5 5 5 5 5 5 5 5 5 5 5 5 5 5 5 5 5 5 5 5 5 5 5 5 5 5 5 5 5 5 5 5 5 5 5 5 5 5 5 5 5 5 5 5 5 5 5 5 5 5 5 5 5 5 5 5 5 5 5 5 5 5 5 5 5 5 5 5 5 5 5 5 5 5 5 5 5 5 5 5 5 5 5 5 5 5 5 5 5 5 5 5 5 5 5 5 5 5 5 5 5 5 5 5 5 5 5 5 5 5 5 5 5 5 5 5 5 5 5 

POINT_DATA 73
