# vtk DataFile Version 1.0
2D Simulation C++
ASCII
DATASET UNSTRUCTURED_GRID
FIELD FieldData 1
NODES 1 2 int
66 106

POINTS 66 double
0.0 0.0 0.0
0.0 1.0 0.0
1.0 1.0 0.0
1.0 0.0 0.0
0.0 0.224003374577 0.0
0.0 0.448006749153 0.0
0.0 0.608711063862 0.0
0.0 0.769415378571 0.0
0.0 0.884707689285 0.0
0.115292325616 1.0 0.0
0.230584651232 1.0 0.0
0.391288936138 1.0 0.0
0.551993250847 1.0 0.0
0.775996625423 1.0 0.0
1.0 0.789787709713 0.0
1.0 0.579575359821 0.0
1.0 0.41641998291 0.0
1.0 0.253264576197 0.0
1.0 0.126632288098 0.0
0.873367726803 0.0 0.0
0.746735394001 0.0 0.0
0.583580076694 0.0 0.0
0.420424699783 0.0 0.0
0.210212349892 0.0 0.0
0.527050009882 0.488760384825 0.0
0.313249524496 0.689658884058 0.0
0.696795778174 0.282722339544 0.0
0.605641652789 0.743014091169 0.0
0.261157513227 0.398368153638 0.0
0.460789729904 0.2496634042 0.0
0.755817232306 0.564544105934 0.0
0.200442014067 0.800708750171 0.0
0.79887424142 0.194329728071 0.0
0.792226012479 0.77283686072 0.0
0.230798577763 0.209770955679 0.0
0.850184196314 0.333280162198 0.0
0.670159593253 0.128951322957 0.0
0.328924469645 0.862121811259 0.0
0.138974698121 0.672456284185 0.0
0.478748929958 0.634417544987 0.0
0.564882679751 0.350477242608 0.0
0.419498818361 0.386527402274 0.0
0.626413673652 0.588518182389 0.0
0.677749445371 0.881734425799 0.0
0.11984190349 0.32360155759 0.0
0.500800491885 0.875175888124 0.0
0.126116656031 0.500790228302 0.0
0.356403809536 0.135469292021 0.0
0.865588964684 0.650015014206 0.0
0.510910591601 0.120685142238 0.0
0.862362885091 0.493765244903 0.0
0.371792186341 0.528051049735 0.0
0.697864658278 0.440464169336 0.0
0.100134878459 0.900262773442 0.0
0.443815557575 0.761487737979 0.0
0.581933116072 0.226012020194 0.0
0.897466023256 0.100971999904 0.0
0.793818776264 0.0864667913018 0.0
0.907514433682 0.206659570902 0.0
0.199822065439 0.910592132039 0.0
0.0899072461131 0.800862738716 0.0
0.241187226072 0.559324845151 0.0
0.855909547033 0.890092876618 0.0
0.110895448107 0.14489922534 0.0
0.72643774782 0.667751264323 0.0
0.342197195598 0.278023091936 0.0

CELLS 106 424
3 25 31 37
3 25 38 31
3 24 41 51
3 26 52 35
3 24 42 52
3 35 52 50
3 26 32 36
3 26 35 32
3 24 51 39
3 27 43 33
3 28 34 44
3 27 33 64
3 28 65 34
3 17 35 16
3 20 21 36
3 24 52 40
3 28 51 41
3 10 11 37
3 7 38 6
3 30 52 42
3 14 48 33
3 23 34 47
3 12 13 43
3 5 44 4
3 15 50 48
3 22 47 49
3 22 23 47
3 15 48 14
3 27 64 42
3 28 41 65
3 24 39 42
3 33 43 62
3 34 63 44
3 1 53 8
3 1 9 53
3 27 42 39
3 5 46 44
3 12 43 45
3 24 40 41
3 25 37 54
3 29 41 40
3 10 37 59
3 7 60 38
3 20 36 57
3 17 58 35
3 25 61 38
3 32 57 36
3 32 35 58
3 28 44 46
3 27 45 43
3 15 16 50
3 22 49 21
3 31 59 37
3 31 38 60
3 30 50 52
3 29 49 47
3 30 48 50
3 13 62 43
3 4 44 63
3 14 33 62
3 23 63 34
3 21 49 36
3 16 35 50
3 5 6 46
3 12 45 11
3 3 56 18
3 3 19 56
3 28 61 51
3 28 46 61
3 25 39 51
3 11 45 37
3 6 38 46
3 26 40 52
3 26 36 55
3 25 54 39
3 37 45 54
3 26 55 40
3 7 8 60
3 10 59 9
3 27 39 54
3 2 62 13
3 0 4 63
3 29 40 55
3 2 14 62
3 0 63 23
3 20 57 19
3 17 18 58
3 36 49 55
3 27 54 45
3 38 61 46
3 29 55 49
3 8 53 60
3 9 59 53
3 29 47 65
3 30 64 48
3 29 65 41
3 30 42 64
3 25 51 61
3 34 65 47
3 33 48 64
3 31 53 59
3 31 60 53
3 19 57 56
3 18 56 58
3 32 56 57
3 32 58 56

CELL_TYPES 106
5 5 5 5 5 5 5 5 5 5 5 5 5 5 5 5 5 5 5 5 5 5 5 5 5 5 5 5 5 5 5 5 5 5 5 5 5 5 5 5 5 5 5 5 5 5 5 5 5 5 5 5 5 5 5 5 5 5 5 5 5 5 5 5 5 5 5 5 5 5 5 5 5 5 5 5 5 5 5 5 5 5 5 5 5 5 5 5 5 5 5 5 5 5 5 5 5 5 5 5 5 5 5 5 5 5 

POINT_DATA 66
