# vtk DataFile Version 1.0
2D Simulation C++
ASCII
DATASET UNSTRUCTURED_GRID
FIELD FieldData 1
NODES 1 2 int
66 106

POINTS 66 double
0.0 0.0 0.0
0.0 1.0 0.0
1.0 1.0 0.0
1.0 0.0 0.0
0.0 0.224003374577 0.0
0.0 0.448006749153 0.0
0.0 0.608711063862 0.0
0.0 0.769415378571 0.0
0.0 0.884707689285 0.0
0.115292325616 1.0 0.0
0.230584651232 1.0 0.0
0.391288936138 1.0 0.0
0.551993250847 1.0 0.0
0.775996625423 1.0 0.0
1.0 0.789787709713 0.0
1.0 0.579575359821 0.0
1.0 0.41641998291 0.0
1.0 0.253264576197 0.0
1.0 0.126632288098 0.0
0.873367726803 0.0 0.0
0.746735394001 0.0 0.0
0.583580076694 0.0 0.0
0.420424699783 0.0 0.0
0.210212349892 0.0 0.0
0.527914291396 0.48824794288 0.0
0.314161348938 0.688894071857 0.0
0.696995445359 0.282642509286 0.0
0.60643416567 0.742857982439 0.0
0.261731794491 0.397585313757 0.0
0.461105986394 0.249148008168 0.0
0.756465709309 0.564581014226 0.0
0.201062990493 0.800117972833 0.0
0.798865860921 0.194382887032 0.0
0.79267372028 0.772905980409 0.0
0.231007204935 0.209309099963 0.0
0.850338549441 0.333310824898 0.0
0.670168790902 0.128902656695 0.0
0.329471120152 0.86172281149 0.0
0.139495851441 0.671887016922 0.0
0.479787377989 0.633857022425 0.0
0.565373642833 0.350085644818 0.0
0.420161041112 0.38578607169 0.0
0.627316895398 0.588344655106 0.0
0.678095880974 0.881744428995 0.0
0.12004439106 0.323225181075 0.0
0.501286091368 0.875015765976 0.0
0.126494401 0.500260956361 0.0
0.356542373822 0.135102299623 0.0
0.865976766187 0.650093914135 0.0
0.510983575131 0.120457542799 0.0
0.8626688375 0.493823116093 0.0
0.372739168606 0.527198205222 0.0
0.69841641841 0.440360592145 0.0
0.100422897571 0.899968973767 0.0
0.444699042595 0.761018276793 0.0
0.582104278772 0.225754474197 0.0
0.897420041823 0.101022375896 0.0
0.793772393988 0.0865031997362 0.0
0.907505357814 0.206712323356 0.0
0.200186612318 0.910276001953 0.0
0.0902522115231 0.800472006526 0.0
0.241973676534 0.558459247777 0.0
0.856092394401 0.890157564446 0.0
0.110937190497 0.144707338003 0.0
0.727167455363 0.667784124713 0.0
0.342598186598 0.277331937866 0.0

CELLS 106 424
3 25 31 37
3 25 38 31
3 24 41 51
3 26 52 35
3 24 42 52
3 35 52 50
3 26 32 36
3 26 35 32
3 24 51 39
3 27 43 33
3 28 34 44
3 27 33 64
3 28 65 34
3 17 35 16
3 20 21 36
3 24 52 40
3 28 51 41
3 10 11 37
3 7 38 6
3 30 52 42
3 14 48 33
3 23 34 47
3 12 13 43
3 5 44 4
3 15 50 48
3 22 47 49
3 22 23 47
3 15 48 14
3 27 64 42
3 28 41 65
3 24 39 42
3 33 43 62
3 34 63 44
3 1 53 8
3 1 9 53
3 27 42 39
3 5 46 44
3 12 43 45
3 24 40 41
3 25 37 54
3 29 41 40
3 10 37 59
3 7 60 38
3 20 36 57
3 17 58 35
3 25 61 38
3 32 57 36
3 32 35 58
3 28 44 46
3 27 45 43
3 15 16 50
3 22 49 21
3 31 59 37
3 31 38 60
3 30 50 52
3 29 49 47
3 30 48 50
3 13 62 43
3 4 44 63
3 14 33 62
3 23 63 34
3 21 49 36
3 16 35 50
3 5 6 46
3 12 45 11
3 3 56 18
3 3 19 56
3 28 61 51
3 28 46 61
3 25 39 51
3 11 45 37
3 6 38 46
3 26 40 52
3 26 36 55
3 25 54 39
3 37 45 54
3 26 55 40
3 7 8 60
3 10 59 9
3 27 39 54
3 2 62 13
3 0 4 63
3 29 40 55
3 2 14 62
3 0 63 23
3 20 57 19
3 17 18 58
3 36 49 55
3 27 54 45
3 38 61 46
3 29 55 49
3 8 53 60
3 9 59 53
3 29 47 65
3 30 64 48
3 29 65 41
3 30 42 64
3 25 51 61
3 34 65 47
3 33 48 64
3 31 53 59
3 31 60 53
3 19 57 56
3 18 56 58
3 32 56 57
3 32 58 56

CELL_TYPES 106
5 5 5 5 5 5 5 5 5 5 5 5 5 5 5 5 5 5 5 5 5 5 5 5 5 5 5 5 5 5 5 5 5 5 5 5 5 5 5 5 5 5 5 5 5 5 5 5 5 5 5 5 5 5 5 5 5 5 5 5 5 5 5 5 5 5 5 5 5 5 5 5 5 5 5 5 5 5 5 5 5 5 5 5 5 5 5 5 5 5 5 5 5 5 5 5 5 5 5 5 5 5 5 5 5 5 

POINT_DATA 66
