# vtk DataFile Version 1.0
2D Simulation C++
ASCII
DATASET UNSTRUCTURED_GRID
FIELD FieldData 1
NODES 1 2 int
66 106

POINTS 66 double
0.0 0.0 0.0
0.0 1.0 0.0
1.0 1.0 0.0
1.0 0.0 0.0
0.0 0.224003374577 0.0
0.0 0.448006749153 0.0
0.0 0.608711063862 0.0
0.0 0.769415378571 0.0
0.0 0.884707689285 0.0
0.115292325616 1.0 0.0
0.230584651232 1.0 0.0
0.391288936138 1.0 0.0
0.551993250847 1.0 0.0
0.775996625423 1.0 0.0
1.0 0.789787709713 0.0
1.0 0.579575359821 0.0
1.0 0.41641998291 0.0
1.0 0.253264576197 0.0
1.0 0.126632288098 0.0
0.873367726803 0.0 0.0
0.746735394001 0.0 0.0
0.583580076694 0.0 0.0
0.420424699783 0.0 0.0
0.210212349892 0.0 0.0
0.528452429121 0.487922417681 0.0
0.314714352236 0.688436035918 0.0
0.697144404753 0.282573283355 0.0
0.606916566692 0.742746869133 0.0
0.262092960304 0.397121064583 0.0
0.461324192268 0.248828628426 0.0
0.756870574916 0.564577747169 0.0
0.201437845855 0.799767352283 0.0
0.798883932109 0.194398131361 0.0
0.792946719038 0.77293376865 0.0
0.231147842991 0.209035812506 0.0
0.850448103289 0.333312712395 0.0
0.670195327969 0.128861609448 0.0
0.329801516964 0.861482172212 0.0
0.139811608506 0.671552299389 0.0
0.480420860542 0.633507088614 0.0
0.56569709723 0.349831148583 0.0
0.420582072104 0.385333353473 0.0
0.627873987019 0.588216419557 0.0
0.678305809019 0.881741271872 0.0
0.120176340098 0.323005106494 0.0
0.501580103325 0.874911761967 0.0
0.126729015973 0.499951061395 0.0
0.356642044023 0.134879978463 0.0
0.866217248162 0.650126421181 0.0
0.511047028595 0.120313780855 0.0
0.862864741844 0.493840826213 0.0
0.373321481131 0.526683941302 0.0
0.698769079935 0.44027389838 0.0
0.100596299441 0.899794892945 0.0
0.445234226411 0.760727372964 0.0
0.582238090474 0.225583815441 0.0
0.897404009046 0.101044007156 0.0
0.793759369171 0.0865159082559 0.0
0.90751311855 0.20673273608 0.0
0.200406485682 0.910087640394 0.0
0.0904600328479 0.800242012008 0.0
0.24245481463 0.557947903375 0.0
0.856202768775 0.890191410182 0.0
0.110969220026 0.144595997767 0.0
0.727615966937 0.667780861435 0.0
0.342862477669 0.276916376093 0.0

CELLS 106 424
3 25 31 37
3 25 38 31
3 24 41 51
3 26 52 35
3 24 42 52
3 35 52 50
3 26 32 36
3 26 35 32
3 24 51 39
3 27 43 33
3 28 34 44
3 27 33 64
3 28 65 34
3 17 35 16
3 20 21 36
3 24 52 40
3 28 51 41
3 10 11 37
3 7 38 6
3 30 52 42
3 14 48 33
3 23 34 47
3 12 13 43
3 5 44 4
3 15 50 48
3 22 47 49
3 22 23 47
3 15 48 14
3 27 64 42
3 28 41 65
3 24 39 42
3 33 43 62
3 34 63 44
3 1 53 8
3 1 9 53
3 27 42 39
3 5 46 44
3 12 43 45
3 24 40 41
3 25 37 54
3 29 41 40
3 10 37 59
3 7 60 38
3 20 36 57
3 17 58 35
3 25 61 38
3 32 57 36
3 32 35 58
3 28 44 46
3 27 45 43
3 15 16 50
3 22 49 21
3 31 59 37
3 31 38 60
3 30 50 52
3 29 49 47
3 30 48 50
3 13 62 43
3 4 44 63
3 14 33 62
3 23 63 34
3 21 49 36
3 16 35 50
3 5 6 46
3 12 45 11
3 3 56 18
3 3 19 56
3 28 61 51
3 28 46 61
3 25 39 51
3 11 45 37
3 6 38 46
3 26 40 52
3 26 36 55
3 25 54 39
3 37 45 54
3 26 55 40
3 7 8 60
3 10 59 9
3 27 39 54
3 2 62 13
3 0 4 63
3 29 40 55
3 2 14 62
3 0 63 23
3 20 57 19
3 17 18 58
3 36 49 55
3 27 54 45
3 38 61 46
3 29 55 49
3 8 53 60
3 9 59 53
3 29 47 65
3 30 64 48
3 29 65 41
3 30 42 64
3 25 51 61
3 34 65 47
3 33 48 64
3 31 53 59
3 31 60 53
3 19 57 56
3 18 56 58
3 32 56 57
3 32 58 56

CELL_TYPES 106
5 5 5 5 5 5 5 5 5 5 5 5 5 5 5 5 5 5 5 5 5 5 5 5 5 5 5 5 5 5 5 5 5 5 5 5 5 5 5 5 5 5 5 5 5 5 5 5 5 5 5 5 5 5 5 5 5 5 5 5 5 5 5 5 5 5 5 5 5 5 5 5 5 5 5 5 5 5 5 5 5 5 5 5 5 5 5 5 5 5 5 5 5 5 5 5 5 5 5 5 5 5 5 5 5 5 

POINT_DATA 66
