# vtk DataFile Version 1.0
2D Simulation C++
ASCII
DATASET UNSTRUCTURED_GRID
FIELD FieldData 1
NODES 1 2 int
66 106

POINTS 66 double
0.0 0.0 0.0
0.0 1.0 0.0
1.0 1.0 0.0
1.0 0.0 0.0
0.0 0.224003374577 0.0
0.0 0.448006749153 0.0
0.0 0.608711063862 0.0
0.0 0.769415378571 0.0
0.0 0.884707689285 0.0
0.115292325616 1.0 0.0
0.230584651232 1.0 0.0
0.391288936138 1.0 0.0
0.551993250847 1.0 0.0
0.775996625423 1.0 0.0
1.0 0.789787709713 0.0
1.0 0.579575359821 0.0
1.0 0.41641998291 0.0
1.0 0.253264576197 0.0
1.0 0.126632288098 0.0
0.873367726803 0.0 0.0
0.746735394001 0.0 0.0
0.583580076694 0.0 0.0
0.420424699783 0.0 0.0
0.210212349892 0.0 0.0
0.514815815794 0.494191096017 0.0
0.298771478606 0.702673293163 0.0
0.698638647748 0.280834761587 0.0
0.593407429941 0.74291891535 0.0
0.254317258865 0.413362591656 0.0
0.460343575767 0.255927579816 0.0
0.74853971575 0.559680136808 0.0
0.190895988621 0.810524468977 0.0
0.803278092712 0.190659893305 0.0
0.785725631162 0.769920648732 0.0
0.230322013498 0.218016090259 0.0
0.850812868856 0.329260666955 0.0
0.674013210696 0.128418297334 0.0
0.320246841222 0.867943492265 0.0
0.131060568687 0.683812395884 0.0
0.46227931806 0.641151833482 0.0
0.560927361901 0.353515418287 0.0
0.411238607541 0.396767964393 0.0
0.614280522301 0.588306418607 0.0
0.672865297474 0.880130431682 0.0
0.11906394117 0.330834870791 0.0
0.49313303634 0.87614321986 0.0
0.121963512694 0.512179614397 0.0
0.357409455587 0.140895712302 0.0
0.8607344553 0.645983425311 0.0
0.513629761106 0.123509507057 0.0
0.859801997594 0.488986456212 0.0
0.35703722213 0.542234487509 0.0
0.692269158317 0.437986551188 0.0
0.0958832497736 0.904719349503 0.0
0.429631400084 0.766998639901 0.0
0.584667028989 0.228181263902 0.0
0.900253310752 0.0986217204112 0.0
0.79730048751 0.084581606475 0.0
0.910150873267 0.203364974474 0.0
0.194150611506 0.915307303356 0.0
0.0846708197418 0.807791383379 0.0
0.229597474176 0.577124211258 0.0
0.854065677671 0.888183656804 0.0
0.111915337433 0.147701154916 0.0
0.71672299796 0.664209516063 0.0
0.339376752753 0.288840313754 0.0

CELLS 106 424
3 25 31 37
3 25 38 31
3 24 41 51
3 26 52 35
3 24 42 52
3 35 52 50
3 26 32 36
3 26 35 32
3 24 51 39
3 27 43 33
3 28 34 44
3 27 33 64
3 28 65 34
3 17 35 16
3 20 21 36
3 24 52 40
3 28 51 41
3 10 11 37
3 7 38 6
3 30 52 42
3 14 48 33
3 23 34 47
3 12 13 43
3 5 44 4
3 15 50 48
3 22 47 49
3 22 23 47
3 15 48 14
3 27 64 42
3 28 41 65
3 24 39 42
3 33 43 62
3 34 63 44
3 1 53 8
3 1 9 53
3 27 42 39
3 5 46 44
3 12 43 45
3 24 40 41
3 25 37 54
3 29 41 40
3 10 37 59
3 7 60 38
3 20 36 57
3 17 58 35
3 25 61 38
3 32 57 36
3 32 35 58
3 28 44 46
3 27 45 43
3 15 16 50
3 22 49 21
3 31 59 37
3 31 38 60
3 30 50 52
3 29 49 47
3 30 48 50
3 13 62 43
3 4 44 63
3 14 33 62
3 23 63 34
3 21 49 36
3 16 35 50
3 5 6 46
3 12 45 11
3 3 56 18
3 3 19 56
3 28 61 51
3 28 46 61
3 25 39 51
3 11 45 37
3 6 38 46
3 26 40 52
3 26 36 55
3 25 54 39
3 37 45 54
3 26 55 40
3 7 8 60
3 10 59 9
3 27 39 54
3 2 62 13
3 0 4 63
3 29 40 55
3 2 14 62
3 0 63 23
3 20 57 19
3 17 18 58
3 36 49 55
3 27 54 45
3 38 61 46
3 29 55 49
3 8 53 60
3 9 59 53
3 29 47 65
3 30 64 48
3 29 65 41
3 30 42 64
3 25 51 61
3 34 65 47
3 33 48 64
3 31 53 59
3 31 60 53
3 19 57 56
3 18 56 58
3 32 56 57
3 32 58 56

CELL_TYPES 106
5 5 5 5 5 5 5 5 5 5 5 5 5 5 5 5 5 5 5 5 5 5 5 5 5 5 5 5 5 5 5 5 5 5 5 5 5 5 5 5 5 5 5 5 5 5 5 5 5 5 5 5 5 5 5 5 5 5 5 5 5 5 5 5 5 5 5 5 5 5 5 5 5 5 5 5 5 5 5 5 5 5 5 5 5 5 5 5 5 5 5 5 5 5 5 5 5 5 5 5 5 5 5 5 5 5 

POINT_DATA 66
