# vtk DataFile Version 1.0
2D Simulation C++
ASCII
DATASET UNSTRUCTURED_GRID
FIELD FieldData 1
NODES 1 2 int
66 106

POINTS 66 double
0.0 0.0 0.0
0.0 1.0 0.0
1.0 1.0 0.0
1.0 0.0 0.0
0.0 0.224003374577 0.0
0.0 0.448006749153 0.0
0.0 0.608711063862 0.0
0.0 0.769415378571 0.0
0.0 0.884707689285 0.0
0.115292325616 1.0 0.0
0.230584651232 1.0 0.0
0.391288936138 1.0 0.0
0.551993250847 1.0 0.0
0.775996625423 1.0 0.0
1.0 0.789787709713 0.0
1.0 0.579575359821 0.0
1.0 0.41641998291 0.0
1.0 0.253264576197 0.0
1.0 0.126632288098 0.0
0.873367726803 0.0 0.0
0.746735394001 0.0 0.0
0.583580076694 0.0 0.0
0.420424699783 0.0 0.0
0.210212349892 0.0 0.0
0.514271465534 0.494356139106 0.0
0.298122894452 0.70326498363 0.0
0.698870111845 0.280687153762 0.0
0.592857387759 0.742851507311 0.0
0.254088010613 0.414167330097 0.0
0.460460762335 0.256106405033 0.0
0.74835972853 0.559345263698 0.0
0.190504381847 0.810923666902 0.0
0.803601187929 0.190422249216 0.0
0.785439691766 0.769775973221 0.0
0.230384991302 0.218398078172 0.0
0.850945437514 0.328935007776 0.0
0.674312509495 0.128400826073 0.0
0.319861673893 0.86815280063 0.0
0.130748034485 0.684404310315 0.0
0.461498231597 0.641355482725 0.0
0.560836363081 0.353539951915 0.0
0.410869804277 0.397098552152 0.0
0.613858954591 0.588310459837 0.0
0.672700815979 0.880021207451 0.0
0.119142754684 0.331168067711 0.0
0.492793511384 0.876123517356 0.0
0.121890991118 0.512835966399 0.0
0.357578361377 0.141119110507 0.0
0.860546098851 0.645707358586 0.0
0.513881114733 0.123636225661 0.0
0.859777689427 0.488603388647 0.0
0.356312579513 0.542899320611 0.0
0.69211551288 0.437754601859 0.0
0.0957387077198 0.904856675172 0.0
0.428996943671 0.767139552371 0.0
0.584950262115 0.228266053334 0.0
0.90042477482 0.0984817141519 0.0
0.797534192166 0.0844772386016 0.0
0.910341118435 0.203124587143 0.0
0.193908752058 0.915471829169 0.0
0.0844710833924 0.808088837998 0.0
0.229120358243 0.578157662855 0.0
0.854122760413 0.888059972871 0.0
0.112034919875 0.147687903593 0.0
0.716381986403 0.664017125841 0.0
0.339353214492 0.289269353283 0.0

CELLS 106 424
3 25 31 37
3 25 38 31
3 24 41 51
3 26 52 35
3 24 42 52
3 35 52 50
3 26 32 36
3 26 35 32
3 24 51 39
3 27 43 33
3 28 34 44
3 27 33 64
3 28 65 34
3 17 35 16
3 20 21 36
3 24 52 40
3 28 51 41
3 10 11 37
3 7 38 6
3 30 52 42
3 14 48 33
3 23 34 47
3 12 13 43
3 5 44 4
3 15 50 48
3 22 47 49
3 22 23 47
3 15 48 14
3 27 64 42
3 28 41 65
3 24 39 42
3 33 43 62
3 34 63 44
3 1 53 8
3 1 9 53
3 27 42 39
3 5 46 44
3 12 43 45
3 24 40 41
3 25 37 54
3 29 41 40
3 10 37 59
3 7 60 38
3 20 36 57
3 17 58 35
3 25 61 38
3 32 57 36
3 32 35 58
3 28 44 46
3 27 45 43
3 15 16 50
3 22 49 21
3 31 59 37
3 31 38 60
3 30 50 52
3 29 49 47
3 30 48 50
3 13 62 43
3 4 44 63
3 14 33 62
3 23 63 34
3 21 49 36
3 16 35 50
3 5 6 46
3 12 45 11
3 3 56 18
3 3 19 56
3 28 61 51
3 28 46 61
3 25 39 51
3 11 45 37
3 6 38 46
3 26 40 52
3 26 36 55
3 25 54 39
3 37 45 54
3 26 55 40
3 7 8 60
3 10 59 9
3 27 39 54
3 2 62 13
3 0 4 63
3 29 40 55
3 2 14 62
3 0 63 23
3 20 57 19
3 17 18 58
3 36 49 55
3 27 54 45
3 38 61 46
3 29 55 49
3 8 53 60
3 9 59 53
3 29 47 65
3 30 64 48
3 29 65 41
3 30 42 64
3 25 51 61
3 34 65 47
3 33 48 64
3 31 53 59
3 31 60 53
3 19 57 56
3 18 56 58
3 32 56 57
3 32 58 56

CELL_TYPES 106
5 5 5 5 5 5 5 5 5 5 5 5 5 5 5 5 5 5 5 5 5 5 5 5 5 5 5 5 5 5 5 5 5 5 5 5 5 5 5 5 5 5 5 5 5 5 5 5 5 5 5 5 5 5 5 5 5 5 5 5 5 5 5 5 5 5 5 5 5 5 5 5 5 5 5 5 5 5 5 5 5 5 5 5 5 5 5 5 5 5 5 5 5 5 5 5 5 5 5 5 5 5 5 5 5 5 

POINT_DATA 66
