# vtk DataFile Version 1.0
2D Simulation C++
ASCII
DATASET UNSTRUCTURED_GRID
FIELD FieldData 1
NODES 1 2 int
66 106

POINTS 66 double
0.0 0.0 0.0
0.0 1.0 0.0
1.0 1.0 0.0
1.0 0.0 0.0
0.0 0.224003374577 0.0
0.0 0.448006749153 0.0
0.0 0.608711063862 0.0
0.0 0.769415378571 0.0
0.0 0.884707689285 0.0
0.115292325616 1.0 0.0
0.230584651232 1.0 0.0
0.391288936138 1.0 0.0
0.551993250847 1.0 0.0
0.775996625423 1.0 0.0
1.0 0.789787709713 0.0
1.0 0.579575359821 0.0
1.0 0.41641998291 0.0
1.0 0.253264576197 0.0
1.0 0.126632288098 0.0
0.873367726803 0.0 0.0
0.746735394001 0.0 0.0
0.583580076694 0.0 0.0
0.420424699783 0.0 0.0
0.210212349892 0.0 0.0
0.517571868349 0.493275132057 0.0
0.302090655139 0.699624020935 0.0
0.697605557963 0.281561175091 0.0
0.596197777187 0.743203817045 0.0
0.255590737632 0.409464235961 0.0
0.459893386989 0.254852709988 0.0
0.749678909034 0.561280175012 0.0
0.192958936738 0.808380674208 0.0
0.8017508618 0.191811442556 0.0
0.787149896445 0.770695123468 0.0
0.230071280838 0.216063562309 0.0
0.8502576581 0.330724636956 0.0
0.672619879719 0.128565931293 0.0
0.322220041785 0.866785613793 0.0
0.132745641815 0.680874537766 0.0
0.466173564746 0.639957692788 0.0
0.56146241765 0.353248725084 0.0
0.413050553166 0.394823288512 0.0
0.616650446798 0.588451351487 0.0
0.673800978025 0.880653266235 0.0
0.118819946459 0.329099966497 0.0
0.494875232546 0.87616395074 0.0
0.122524078334 0.509038032625 0.0
0.356713410136 0.139739494019 0.0
0.861693247877 0.647274454999 0.0
0.512482529499 0.12289623835 0.0
0.860042513425 0.49070531757 0.0
0.360587974262 0.538881226423 0.0
0.693160572493 0.43904272003 0.0
0.096719108305 0.903885810037 0.0
0.432900858821 0.766114921756 0.0
0.583374880082 0.227792481827 0.0
0.899399761153 0.0993236497394 0.0
0.79617923944 0.085113361437 0.0
0.909243289154 0.204480221879 0.0
0.195402112693 0.914387840537 0.0
0.0857594874317 0.806216078701 0.0
0.232102914212 0.572230915349 0.0
0.8540869622 0.888751431391 0.0
0.111405918694 0.147414169444 0.0
0.718608876358 0.665211908817 0.0
0.339611238031 0.286522586235 0.0

CELLS 106 424
3 25 31 37
3 25 38 31
3 24 41 51
3 26 52 35
3 24 42 52
3 35 52 50
3 26 32 36
3 26 35 32
3 24 51 39
3 27 43 33
3 28 34 44
3 27 33 64
3 28 65 34
3 17 35 16
3 20 21 36
3 24 52 40
3 28 51 41
3 10 11 37
3 7 38 6
3 30 52 42
3 14 48 33
3 23 34 47
3 12 13 43
3 5 44 4
3 15 50 48
3 22 47 49
3 22 23 47
3 15 48 14
3 27 64 42
3 28 41 65
3 24 39 42
3 33 43 62
3 34 63 44
3 1 53 8
3 1 9 53
3 27 42 39
3 5 46 44
3 12 43 45
3 24 40 41
3 25 37 54
3 29 41 40
3 10 37 59
3 7 60 38
3 20 36 57
3 17 58 35
3 25 61 38
3 32 57 36
3 32 35 58
3 28 44 46
3 27 45 43
3 15 16 50
3 22 49 21
3 31 59 37
3 31 38 60
3 30 50 52
3 29 49 47
3 30 48 50
3 13 62 43
3 4 44 63
3 14 33 62
3 23 63 34
3 21 49 36
3 16 35 50
3 5 6 46
3 12 45 11
3 3 56 18
3 3 19 56
3 28 61 51
3 28 46 61
3 25 39 51
3 11 45 37
3 6 38 46
3 26 40 52
3 26 36 55
3 25 54 39
3 37 45 54
3 26 55 40
3 7 8 60
3 10 59 9
3 27 39 54
3 2 62 13
3 0 4 63
3 29 40 55
3 2 14 62
3 0 63 23
3 20 57 19
3 17 18 58
3 36 49 55
3 27 54 45
3 38 61 46
3 29 55 49
3 8 53 60
3 9 59 53
3 29 47 65
3 30 64 48
3 29 65 41
3 30 42 64
3 25 51 61
3 34 65 47
3 33 48 64
3 31 53 59
3 31 60 53
3 19 57 56
3 18 56 58
3 32 56 57
3 32 58 56

CELL_TYPES 106
5 5 5 5 5 5 5 5 5 5 5 5 5 5 5 5 5 5 5 5 5 5 5 5 5 5 5 5 5 5 5 5 5 5 5 5 5 5 5 5 5 5 5 5 5 5 5 5 5 5 5 5 5 5 5 5 5 5 5 5 5 5 5 5 5 5 5 5 5 5 5 5 5 5 5 5 5 5 5 5 5 5 5 5 5 5 5 5 5 5 5 5 5 5 5 5 5 5 5 5 5 5 5 5 5 5 

POINT_DATA 66
