# vtk DataFile Version 1.0
2D Simulation C++
ASCII
DATASET UNSTRUCTURED_GRID
FIELD FieldData 1
NODES 1 2 int
73 120

POINTS 73 double
0.0 0.0 0.0
0.0 1.0 0.0
1.0 1.0 0.0
1.0 0.0 0.0
0.0 0.224003374577 0.0
0.0 0.448006749153 0.0
0.0 0.608711063862 0.0
0.0 0.769415378571 0.0
0.0 0.884707689285 0.0
0.115292325616 1.0 0.0
0.230584651232 1.0 0.0
0.391288936138 1.0 0.0
0.551993250847 1.0 0.0
0.775996625423 1.0 0.0
1.0 0.789787709713 0.0
1.0 0.579575359821 0.0
1.0 0.41641998291 0.0
1.0 0.253264576197 0.0
1.0 0.126632288098 0.0
0.873367726803 0.0 0.0
0.746735394001 0.0 0.0
0.583580076694 0.0 0.0
0.420424699783 0.0 0.0
0.210212349892 0.0 0.0
0.405112814768 0.594879982093 0.0
0.597155973566 0.402797051799 0.0
0.302160128667 0.305728546525 0.0
0.694157930173 0.698052264047 0.0
0.211332446561 0.788792525574 0.0
0.792585935114 0.207497926042 0.0
0.820369098774 0.430567539838 0.0
0.569507667521 0.17968274396 0.0
0.182966577325 0.574910691494 0.0
0.42511164969 0.817067219067 0.0
0.108793345071 0.891294936865 0.0
0.102768593345 0.778081493296 0.0
0.222119186712 0.897246670259 0.0
0.834351168939 0.840281750956 0.0
0.653053618795 0.867906214833 0.0
0.13238892652 0.34709285829 0.0
0.159827246189 0.16572405194 0.0
0.500467853274 0.499436119927 0.0
0.461633841757 0.363307166012 0.0
0.364071244879 0.46192964139 0.0
0.537941404495 0.636045236828 0.0
0.636546138773 0.538360760343 0.0
0.334734291817 0.134268293682 0.0
0.865685609178 0.665335025188 0.0
0.575494140741 0.281202497971 0.0
0.450822075633 0.230020372493 0.0
0.769891248041 0.54925047053 0.0
0.718824962007 0.424563651065 0.0
0.0950306708931 0.655629713036 0.0
0.105347267868 0.511551388647 0.0
0.488528253504 0.894734946632 0.0
0.344567839892 0.904909489788 0.0
0.230677846354 0.45617879608 0.0
0.284651065632 0.574853485991 0.0
0.42514386569 0.715424235569 0.0
0.543726946226 0.769650926387 0.0
0.891774697996 0.108250230868 0.0
0.900993194121 0.227490919728 0.0
0.772545489688 0.09905542494 0.0
0.907845092963 0.356764000293 0.0
0.895715001426 0.503251920888 0.0
0.496799739354 0.104273940826 0.0
0.643271499421 0.0922022726365 0.0
0.309052215199 0.691018712146 0.0
0.321459414564 0.801241124148 0.0
0.198756482789 0.678708879882 0.0
0.678349096728 0.193618572656 0.0
0.806483829844 0.321738419875 0.0
0.695332729606 0.304769925809 0.0

CELLS 120 480
3 1 34 8
3 34 35 8
3 34 28 35
3 8 35 7
3 1 9 34
3 9 36 34
3 9 10 36
3 34 36 28
3 2 37 13
3 37 38 13
3 37 27 38
3 13 38 12
3 0 4 40
3 4 39 40
3 4 5 39
3 40 39 26
3 24 41 43
3 41 42 43
3 41 25 42
3 43 42 26
3 24 44 41
3 44 45 41
3 44 27 45
3 41 45 25
3 0 40 23
3 40 46 23
3 40 26 46
3 23 46 22
3 2 14 37
3 14 47 37
3 14 15 47
3 37 47 27
3 25 48 42
3 48 49 42
3 48 31 49
3 42 49 26
3 25 45 51
3 45 50 51
3 45 27 50
3 51 50 30
3 5 6 53
3 6 52 53
3 6 7 52
3 53 52 32
3 10 11 55
3 11 54 55
3 11 12 54
3 55 54 33
3 24 43 57
3 43 56 57
3 43 26 56
3 57 56 32
3 24 58 44
3 58 59 44
3 58 33 59
3 44 59 27
3 3 60 18
3 60 61 18
3 60 29 61
3 18 61 17
3 3 19 60
3 19 62 60
3 19 20 62
3 60 62 29
3 5 53 39
3 53 56 39
3 53 32 56
3 39 56 26
3 12 38 54
3 38 59 54
3 38 27 59
3 54 59 33
3 15 16 64
3 16 63 64
3 16 17 63
3 64 63 30
3 20 21 66
3 21 65 66
3 21 22 65
3 66 65 31
3 22 46 65
3 46 49 65
3 46 26 49
3 65 49 31
3 15 64 47
3 64 50 47
3 64 30 50
3 47 50 27
3 24 67 58
3 67 68 58
3 67 28 68
3 58 68 33
3 24 57 67
3 57 69 67
3 57 32 69
3 67 69 28
3 7 35 52
3 35 69 52
3 35 28 69
3 52 69 32
3 10 55 36
3 55 68 36
3 55 33 68
3 36 68 28
3 20 66 62
3 66 70 62
3 66 31 70
3 62 70 29
3 17 61 63
3 61 71 63
3 61 29 71
3 63 71 30
3 25 72 48
3 72 70 48
3 72 29 70
3 48 70 31
3 25 51 72
3 51 71 72
3 51 30 71
3 72 71 29

CELL_TYPES 120
5 5 5 5 5 5 5 5 5 5 5 5 5 5 5 5 5 5 5 5 5 5 5 5 5 5 5 5 5 5 5 5 5 5 5 5 5 5 5 5 5 5 5 5 5 5 5 5 5 5 5 5 5 5 5 5 5 5 5 5 5 5 5 5 5 5 5 5 5 5 5 5 5 5 5 5 5 5 5 5 5 5 5 5 5 5 5 5 5 5 5 5 5 5 5 5 5 5 5 5 5 5 5 5 5 5 5 5 5 5 5 5 5 5 5 5 5 5 5 5 

POINT_DATA 73
