# vtk DataFile Version 1.0
2D Simulation C++
ASCII
DATASET UNSTRUCTURED_GRID
FIELD FieldData 1
NODES 1 2 int
66 106

POINTS 66 double
0.0 0.0 0.0
0.0 1.0 0.0
1.0 1.0 0.0
1.0 0.0 0.0
0.0 0.224003374577 0.0
0.0 0.448006749153 0.0
0.0 0.608711063862 0.0
0.0 0.769415378571 0.0
0.0 0.884707689285 0.0
0.115292325616 1.0 0.0
0.230584651232 1.0 0.0
0.391288936138 1.0 0.0
0.551993250847 1.0 0.0
0.775996625423 1.0 0.0
1.0 0.789787709713 0.0
1.0 0.579575359821 0.0
1.0 0.41641998291 0.0
1.0 0.253264576197 0.0
1.0 0.126632288098 0.0
0.873367726803 0.0 0.0
0.746735394001 0.0 0.0
0.583580076694 0.0 0.0
0.420424699783 0.0 0.0
0.210212349892 0.0 0.0
0.527431391024 0.488535894513 0.0
0.313655391554 0.689317044213 0.0
0.696877845273 0.282691846181 0.0
0.605993955566 0.742948595277 0.0
0.261410005387 0.398017097081 0.0
0.460924074989 0.249435691809 0.0
0.756102992967 0.564566767485 0.0
0.200718801486 0.8004439657 0.0
0.798864827375 0.19435752344 0.0
0.792424880149 0.772871026617 0.0
0.230887959408 0.209563725094 0.0
0.850248992659 0.3332979076 0.0
0.67015853683 0.128932434264 0.0
0.329168043406 0.861943930968 0.0
0.139206731583 0.67220028787 0.0
0.479210293597 0.6341705017 0.0
0.565095008103 0.350307083612 0.0
0.41978893557 0.386198221656 0.0
0.62681342785 0.5884465163 0.0
0.677903650901 0.881741108972 0.0
0.119929750114 0.323432010675 0.0
0.501016740496 0.875106321276 0.0
0.12628341303 0.500551866112 0.0
0.356461643432 0.135305918675 0.0
0.865760233415 0.650053868174 0.0
0.510938353053 0.120585229074 0.0
0.862496511529 0.493795274725 0.0
0.372211827661 0.527670702752 0.0
0.698105870505 0.440423878838 0.0
0.100263357932 0.900131050033 0.0
0.444208957229 0.761280332408 0.0
0.582001967776 0.22590087698 0.0
0.897442646874 0.1009966051 0.0
0.793794420339 0.0864852636515 0.0
0.907507132969 0.206685900338 0.0
0.199984595215 0.910450659986 0.0
0.0900611065724 0.800687135308 0.0
0.241536275456 0.558936150208 0.0
0.855991017013 0.890122959252 0.0
0.110912351545 0.144812593507 0.0
0.726761025375 0.667771483655 0.0
0.342370552825 0.277714612997 0.0

CELLS 106 424
3 25 31 37
3 25 38 31
3 24 41 51
3 26 52 35
3 24 42 52
3 35 52 50
3 26 32 36
3 26 35 32
3 24 51 39
3 27 43 33
3 28 34 44
3 27 33 64
3 28 65 34
3 17 35 16
3 20 21 36
3 24 52 40
3 28 51 41
3 10 11 37
3 7 38 6
3 30 52 42
3 14 48 33
3 23 34 47
3 12 13 43
3 5 44 4
3 15 50 48
3 22 47 49
3 22 23 47
3 15 48 14
3 27 64 42
3 28 41 65
3 24 39 42
3 33 43 62
3 34 63 44
3 1 53 8
3 1 9 53
3 27 42 39
3 5 46 44
3 12 43 45
3 24 40 41
3 25 37 54
3 29 41 40
3 10 37 59
3 7 60 38
3 20 36 57
3 17 58 35
3 25 61 38
3 32 57 36
3 32 35 58
3 28 44 46
3 27 45 43
3 15 16 50
3 22 49 21
3 31 59 37
3 31 38 60
3 30 50 52
3 29 49 47
3 30 48 50
3 13 62 43
3 4 44 63
3 14 33 62
3 23 63 34
3 21 49 36
3 16 35 50
3 5 6 46
3 12 45 11
3 3 56 18
3 3 19 56
3 28 61 51
3 28 46 61
3 25 39 51
3 11 45 37
3 6 38 46
3 26 40 52
3 26 36 55
3 25 54 39
3 37 45 54
3 26 55 40
3 7 8 60
3 10 59 9
3 27 39 54
3 2 62 13
3 0 4 63
3 29 40 55
3 2 14 62
3 0 63 23
3 20 57 19
3 17 18 58
3 36 49 55
3 27 54 45
3 38 61 46
3 29 55 49
3 8 53 60
3 9 59 53
3 29 47 65
3 30 64 48
3 29 65 41
3 30 42 64
3 25 51 61
3 34 65 47
3 33 48 64
3 31 53 59
3 31 60 53
3 19 57 56
3 18 56 58
3 32 56 57
3 32 58 56

CELL_TYPES 106
5 5 5 5 5 5 5 5 5 5 5 5 5 5 5 5 5 5 5 5 5 5 5 5 5 5 5 5 5 5 5 5 5 5 5 5 5 5 5 5 5 5 5 5 5 5 5 5 5 5 5 5 5 5 5 5 5 5 5 5 5 5 5 5 5 5 5 5 5 5 5 5 5 5 5 5 5 5 5 5 5 5 5 5 5 5 5 5 5 5 5 5 5 5 5 5 5 5 5 5 5 5 5 5 5 5 

POINT_DATA 66
