# vtk DataFile Version 1.0
2D Simulation C++
ASCII
DATASET UNSTRUCTURED_GRID
FIELD FieldData 1
NODES 1 2 int
66 106

POINTS 66 double
0.0 0.0 0.0
0.0 1.0 0.0
1.0 1.0 0.0
1.0 0.0 0.0
0.0 0.224003374577 0.0
0.0 0.448006749153 0.0
0.0 0.608711063862 0.0
0.0 0.769415378571 0.0
0.0 0.884707689285 0.0
0.115292325616 1.0 0.0
0.230584651232 1.0 0.0
0.391288936138 1.0 0.0
0.551993250847 1.0 0.0
0.775996625423 1.0 0.0
1.0 0.789787709713 0.0
1.0 0.579575359821 0.0
1.0 0.41641998291 0.0
1.0 0.253264576197 0.0
1.0 0.126632288098 0.0
0.873367726803 0.0 0.0
0.746735394001 0.0 0.0
0.583580076694 0.0 0.0
0.420424699783 0.0 0.0
0.210212349892 0.0 0.0
0.51588945444 0.493851477859 0.0
0.300057887012 0.701494065387 0.0
0.69820684645 0.281123750882 0.0
0.59449289031 0.743041271936 0.0
0.254791412522 0.411810250834 0.0
0.460138813297 0.255541762697 0.0
0.748938961972 0.560323811508 0.0
0.191683718343 0.809712436816 0.0
0.80266013453 0.191119801232 0.0
0.78628257399 0.770215797923 0.0
0.230208855543 0.217258846707 0.0
0.850572962486 0.329867656908 0.0
0.673445112871 0.128465288204 0.0
0.321010886787 0.867511808768 0.0
0.131697894954 0.682654586659 0.0
0.463807211475 0.640717816029 0.0
0.561120377836 0.3534399384 0.0
0.411953388054 0.396060638028 0.0
0.615159389552 0.588335776472 0.0
0.673209604057 0.880340458852 0.0
0.118937825739 0.330167250027 0.0
0.493807228682 0.876167368465 0.0
0.122144497646 0.510919716472 0.0
0.357107026538 0.140451303169 0.0
0.861104815126 0.646507615887 0.0
0.513156095701 0.123266140051 0.0
0.859872075916 0.4896998994 0.0
0.358441956461 0.540925971429 0.0
0.692593086159 0.438422066902 0.0
0.0961896519321 0.904420617242 0.0
0.430895685994 0.766687907547 0.0
0.584133132576 0.22802375062 0.0
0.899916379818 0.0988979301911 0.0
0.796850405763 0.0847886307962 0.0
0.909784957605 0.20382035737 0.0
0.194632447464 0.914966463938 0.0
0.0850800710117 0.807190508567 0.0
0.230556156234 0.575152693628 0.0
0.854018032002 0.88841573743 0.0
0.111697781749 0.147652291948 0.0
0.717426697797 0.664595545961 0.0
0.339445028072 0.287964384689 0.0

CELLS 106 424
3 25 31 37
3 25 38 31
3 24 41 51
3 26 52 35
3 24 42 52
3 35 52 50
3 26 32 36
3 26 35 32
3 24 51 39
3 27 43 33
3 28 34 44
3 27 33 64
3 28 65 34
3 17 35 16
3 20 21 36
3 24 52 40
3 28 51 41
3 10 11 37
3 7 38 6
3 30 52 42
3 14 48 33
3 23 34 47
3 12 13 43
3 5 44 4
3 15 50 48
3 22 47 49
3 22 23 47
3 15 48 14
3 27 64 42
3 28 41 65
3 24 39 42
3 33 43 62
3 34 63 44
3 1 53 8
3 1 9 53
3 27 42 39
3 5 46 44
3 12 43 45
3 24 40 41
3 25 37 54
3 29 41 40
3 10 37 59
3 7 60 38
3 20 36 57
3 17 58 35
3 25 61 38
3 32 57 36
3 32 35 58
3 28 44 46
3 27 45 43
3 15 16 50
3 22 49 21
3 31 59 37
3 31 38 60
3 30 50 52
3 29 49 47
3 30 48 50
3 13 62 43
3 4 44 63
3 14 33 62
3 23 63 34
3 21 49 36
3 16 35 50
3 5 6 46
3 12 45 11
3 3 56 18
3 3 19 56
3 28 61 51
3 28 46 61
3 25 39 51
3 11 45 37
3 6 38 46
3 26 40 52
3 26 36 55
3 25 54 39
3 37 45 54
3 26 55 40
3 7 8 60
3 10 59 9
3 27 39 54
3 2 62 13
3 0 4 63
3 29 40 55
3 2 14 62
3 0 63 23
3 20 57 19
3 17 18 58
3 36 49 55
3 27 54 45
3 38 61 46
3 29 55 49
3 8 53 60
3 9 59 53
3 29 47 65
3 30 64 48
3 29 65 41
3 30 42 64
3 25 51 61
3 34 65 47
3 33 48 64
3 31 53 59
3 31 60 53
3 19 57 56
3 18 56 58
3 32 56 57
3 32 58 56

CELL_TYPES 106
5 5 5 5 5 5 5 5 5 5 5 5 5 5 5 5 5 5 5 5 5 5 5 5 5 5 5 5 5 5 5 5 5 5 5 5 5 5 5 5 5 5 5 5 5 5 5 5 5 5 5 5 5 5 5 5 5 5 5 5 5 5 5 5 5 5 5 5 5 5 5 5 5 5 5 5 5 5 5 5 5 5 5 5 5 5 5 5 5 5 5 5 5 5 5 5 5 5 5 5 5 5 5 5 5 5 

POINT_DATA 66
