# vtk DataFile Version 1.0
2D Simulation C++
ASCII
DATASET UNSTRUCTURED_GRID
FIELD FieldData 1
NODES 1 2 int
73 120

POINTS 73 double
0.0 0.0 0.0
0.0 1.0 0.0
1.0 1.0 0.0
1.0 0.0 0.0
0.0 0.224003374577 0.0
0.0 0.448006749153 0.0
0.0 0.608711063862 0.0
0.0 0.769415378571 0.0
0.0 0.884707689285 0.0
0.115292325616 1.0 0.0
0.230584651232 1.0 0.0
0.391288936138 1.0 0.0
0.551993250847 1.0 0.0
0.775996625423 1.0 0.0
1.0 0.789787709713 0.0
1.0 0.579575359821 0.0
1.0 0.41641998291 0.0
1.0 0.253264576197 0.0
1.0 0.126632288098 0.0
0.873367726803 0.0 0.0
0.746735394001 0.0 0.0
0.583580076694 0.0 0.0
0.420424699783 0.0 0.0
0.210212349892 0.0 0.0
0.405340311135 0.594665350164 0.0
0.596241869605 0.403749779057 0.0
0.300738561095 0.304335711758 0.0
0.695605341184 0.699393896716 0.0
0.210261648648 0.789826131423 0.0
0.791092904073 0.20897046092 0.0
0.819766342231 0.433285059572 0.0
0.5667820616 0.18025289643 0.0
0.182580985854 0.573462615119 0.0
0.42658253381 0.817485669673 0.0
0.108061041892 0.892000598254 0.0
0.101869365256 0.778156000485 0.0
0.221950271216 0.898164491543 0.0
0.835226374597 0.840909910051 0.0
0.654650134133 0.868714734384 0.0
0.131429464476 0.345393339357 0.0
0.159159433636 0.164789815071 0.0
0.50046041722 0.499507445821 0.0
0.460200812263 0.362853983565 0.0
0.363378078489 0.460798891542 0.0
0.539137928441 0.636705278387 0.0
0.637069269803 0.539843572495 0.0
0.333384354985 0.133514569793 0.0
0.866453129256 0.66667540462 0.0
0.573150887053 0.281695931805 0.0
0.448411195775 0.229651109405 0.0
0.770293753006 0.551663812267 0.0
0.718309564673 0.426909574892 0.0
0.0947368929683 0.654621423293 0.0
0.105088918364 0.509987479103 0.0
0.490060046952 0.89499638844 0.0
0.3454700784 0.905276486302 0.0
0.229770257335 0.454283235356 0.0
0.284166378178 0.573956736414 0.0
0.426054051236 0.715900637798 0.0
0.545701978464 0.770401397556 0.0
0.891028150604 0.108995755994 0.0
0.900224971731 0.228844090019 0.0
0.771190497921 0.0998135243947 0.0
0.907177158674 0.358512043395 0.0
0.895566658598 0.504993224409 0.0
0.495056530061 0.104421331112 0.0
0.641523510163 0.0928527654427 0.0
0.308646811617 0.69140508999 0.0
0.321560140337 0.802073877391 0.0
0.197963094145 0.67853570517 0.0
0.676057964718 0.194680747779 0.0
0.805380018884 0.324010809853 0.0
0.69369234709 0.306370907164 0.0

CELLS 120 480
3 1 34 8
3 34 35 8
3 34 28 35
3 8 35 7
3 1 9 34
3 9 36 34
3 9 10 36
3 34 36 28
3 2 37 13
3 37 38 13
3 37 27 38
3 13 38 12
3 0 4 40
3 4 39 40
3 4 5 39
3 40 39 26
3 24 41 43
3 41 42 43
3 41 25 42
3 43 42 26
3 24 44 41
3 44 45 41
3 44 27 45
3 41 45 25
3 0 40 23
3 40 46 23
3 40 26 46
3 23 46 22
3 2 14 37
3 14 47 37
3 14 15 47
3 37 47 27
3 25 48 42
3 48 49 42
3 48 31 49
3 42 49 26
3 25 45 51
3 45 50 51
3 45 27 50
3 51 50 30
3 5 6 53
3 6 52 53
3 6 7 52
3 53 52 32
3 10 11 55
3 11 54 55
3 11 12 54
3 55 54 33
3 24 43 57
3 43 56 57
3 43 26 56
3 57 56 32
3 24 58 44
3 58 59 44
3 58 33 59
3 44 59 27
3 3 60 18
3 60 61 18
3 60 29 61
3 18 61 17
3 3 19 60
3 19 62 60
3 19 20 62
3 60 62 29
3 5 53 39
3 53 56 39
3 53 32 56
3 39 56 26
3 12 38 54
3 38 59 54
3 38 27 59
3 54 59 33
3 15 16 64
3 16 63 64
3 16 17 63
3 64 63 30
3 20 21 66
3 21 65 66
3 21 22 65
3 66 65 31
3 22 46 65
3 46 49 65
3 46 26 49
3 65 49 31
3 15 64 47
3 64 50 47
3 64 30 50
3 47 50 27
3 24 67 58
3 67 68 58
3 67 28 68
3 58 68 33
3 24 57 67
3 57 69 67
3 57 32 69
3 67 69 28
3 7 35 52
3 35 69 52
3 35 28 69
3 52 69 32
3 10 55 36
3 55 68 36
3 55 33 68
3 36 68 28
3 20 66 62
3 66 70 62
3 66 31 70
3 62 70 29
3 17 61 63
3 61 71 63
3 61 29 71
3 63 71 30
3 25 72 48
3 72 70 48
3 72 29 70
3 48 70 31
3 25 51 72
3 51 71 72
3 51 30 71
3 72 71 29

CELL_TYPES 120
5 5 5 5 5 5 5 5 5 5 5 5 5 5 5 5 5 5 5 5 5 5 5 5 5 5 5 5 5 5 5 5 5 5 5 5 5 5 5 5 5 5 5 5 5 5 5 5 5 5 5 5 5 5 5 5 5 5 5 5 5 5 5 5 5 5 5 5 5 5 5 5 5 5 5 5 5 5 5 5 5 5 5 5 5 5 5 5 5 5 5 5 5 5 5 5 5 5 5 5 5 5 5 5 5 5 5 5 5 5 5 5 5 5 5 5 5 5 5 5 

POINT_DATA 73
