# vtk DataFile Version 1.0
2D Simulation C++
ASCII
DATASET UNSTRUCTURED_GRID
FIELD FieldData 1
NODES 1 2 int
66 106

POINTS 66 double
0.0 0.0 0.0
0.0 1.0 0.0
1.0 1.0 0.0
1.0 0.0 0.0
0.0 0.224003374577 0.0
0.0 0.448006749153 0.0
0.0 0.608711063862 0.0
0.0 0.769415378571 0.0
0.0 0.884707689285 0.0
0.115292325616 1.0 0.0
0.230584651232 1.0 0.0
0.391288936138 1.0 0.0
0.551993250847 1.0 0.0
0.775996625423 1.0 0.0
1.0 0.789787709713 0.0
1.0 0.579575359821 0.0
1.0 0.41641998291 0.0
1.0 0.253264576197 0.0
1.0 0.126632288098 0.0
0.873367726803 0.0 0.0
0.746735394001 0.0 0.0
0.583580076694 0.0 0.0
0.420424699783 0.0 0.0
0.210212349892 0.0 0.0
0.53002052652 0.48694855906 0.0
0.316257580046 0.687184018294 0.0
0.697684046384 0.282285430855 0.0
0.608269047998 0.742362587341 0.0
0.263159048116 0.395870915223 0.0
0.462051808997 0.247908625394 0.0
0.758049278597 0.564452876749 0.0
0.202473957447 0.798825366083 0.0
0.799035871253 0.194364126081 0.0
0.79371243835 0.772945984357 0.0
0.231601521817 0.208303995659 0.0
0.850824114988 0.333244085964 0.0
0.670361070588 0.128693783966 0.0
0.330717134363 0.860818790528 0.0
0.140690775691 0.670663507896 0.0
0.482206564764 0.632486695358 0.0
0.566717431582 0.349044895724 0.0
0.421847734215 0.384057552417 0.0
0.629469614638 0.587754365333 0.0
0.678888865005 0.88169032337 0.0
0.12058309728 0.322426480821 0.0
0.502397278241 0.874591819108 0.0
0.127406979773 0.499132698913 0.0
0.356988668337 0.13426257546 0.0
0.866909147088 0.650148092053 0.0
0.511307778824 0.119886934484 0.0
0.86345620343 0.49381366251 0.0
0.374985613716 0.525261637788 0.0
0.699834507736 0.439924716351 0.0
0.101072971761 0.899329643822 0.0
0.446724310147 0.759890148123 0.0
0.582744771856 0.22504145424 0.0
0.897411178702 0.101064775458 0.0
0.793789040029 0.0865086177031 0.0
0.907592719803 0.206738907856 0.0
0.201013070449 0.909579772225 0.0
0.0910324981987 0.799632073945 0.0
0.243816628561 0.556578199287 0.0
0.856506462341 0.890260548963 0.0
0.111086793441 0.144307846702 0.0
0.72889065495 0.667665317629 0.0
0.343695053603 0.275774715965 0.0

CELLS 106 424
3 25 31 37
3 25 38 31
3 24 41 51
3 26 52 35
3 24 42 52
3 35 52 50
3 26 32 36
3 26 35 32
3 24 51 39
3 27 43 33
3 28 34 44
3 27 33 64
3 28 65 34
3 17 35 16
3 20 21 36
3 24 52 40
3 28 51 41
3 10 11 37
3 7 38 6
3 30 52 42
3 14 48 33
3 23 34 47
3 12 13 43
3 5 44 4
3 15 50 48
3 22 47 49
3 22 23 47
3 15 48 14
3 27 64 42
3 28 41 65
3 24 39 42
3 33 43 62
3 34 63 44
3 1 53 8
3 1 9 53
3 27 42 39
3 5 46 44
3 12 43 45
3 24 40 41
3 25 37 54
3 29 41 40
3 10 37 59
3 7 60 38
3 20 36 57
3 17 58 35
3 25 61 38
3 32 57 36
3 32 35 58
3 28 44 46
3 27 45 43
3 15 16 50
3 22 49 21
3 31 59 37
3 31 38 60
3 30 50 52
3 29 49 47
3 30 48 50
3 13 62 43
3 4 44 63
3 14 33 62
3 23 63 34
3 21 49 36
3 16 35 50
3 5 6 46
3 12 45 11
3 3 56 18
3 3 19 56
3 28 61 51
3 28 46 61
3 25 39 51
3 11 45 37
3 6 38 46
3 26 40 52
3 26 36 55
3 25 54 39
3 37 45 54
3 26 55 40
3 7 8 60
3 10 59 9
3 27 39 54
3 2 62 13
3 0 4 63
3 29 40 55
3 2 14 62
3 0 63 23
3 20 57 19
3 17 18 58
3 36 49 55
3 27 54 45
3 38 61 46
3 29 55 49
3 8 53 60
3 9 59 53
3 29 47 65
3 30 64 48
3 29 65 41
3 30 42 64
3 25 51 61
3 34 65 47
3 33 48 64
3 31 53 59
3 31 60 53
3 19 57 56
3 18 56 58
3 32 56 57
3 32 58 56

CELL_TYPES 106
5 5 5 5 5 5 5 5 5 5 5 5 5 5 5 5 5 5 5 5 5 5 5 5 5 5 5 5 5 5 5 5 5 5 5 5 5 5 5 5 5 5 5 5 5 5 5 5 5 5 5 5 5 5 5 5 5 5 5 5 5 5 5 5 5 5 5 5 5 5 5 5 5 5 5 5 5 5 5 5 5 5 5 5 5 5 5 5 5 5 5 5 5 5 5 5 5 5 5 5 5 5 5 5 5 5 

POINT_DATA 66
