# vtk DataFile Version 1.0
2D Simulation C++
ASCII
DATASET UNSTRUCTURED_GRID
FIELD FieldData 1
NODES 1 2 int
66 106

POINTS 66 double
0.0 0.0 0.0
0.0 1.0 0.0
1.0 1.0 0.0
1.0 0.0 0.0
0.0 0.224003374577 0.0
0.0 0.448006749153 0.0
0.0 0.608711063862 0.0
0.0 0.769415378571 0.0
0.0 0.884707689285 0.0
0.115292325616 1.0 0.0
0.230584651232 1.0 0.0
0.391288936138 1.0 0.0
0.551993250847 1.0 0.0
0.775996625423 1.0 0.0
1.0 0.789787709713 0.0
1.0 0.579575359821 0.0
1.0 0.41641998291 0.0
1.0 0.253264576197 0.0
1.0 0.126632288098 0.0
0.873367726803 0.0 0.0
0.746735394001 0.0 0.0
0.583580076694 0.0 0.0
0.420424699783 0.0 0.0
0.210212349892 0.0 0.0
0.531234052361 0.486172099208 0.0
0.317379802421 0.686301062032 0.0
0.698205651154 0.281975324112 0.0
0.609257198501 0.74200488326 0.0
0.263996181306 0.395007690444 0.0
0.46270591696 0.247210741425 0.0
0.758955006701 0.564239739077 0.0
0.203215058667 0.798180153378 0.0
0.799250392878 0.194258541639 0.0
0.794270557855 0.772884454381 0.0
0.231993938275 0.207804094305 0.0
0.851170251377 0.333117114802 0.0
0.670575470129 0.128514412936 0.0
0.331374813253 0.860346638829 0.0
0.14132770173 0.670062881964 0.0
0.48352494768 0.631699363069 0.0
0.567585399608 0.348393190228 0.0
0.422866926265 0.383117754515 0.0
0.630672326541 0.587308144266 0.0
0.679307990788 0.881608261561 0.0
0.120917388098 0.322041561903 0.0
0.502986708643 0.874328969097 0.0
0.127923479942 0.498583295468 0.0
0.357311217424 0.133818300302 0.0
0.867431260032 0.650090962351 0.0
0.51158303264 0.119549585365 0.0
0.863931900907 0.493714329741 0.0
0.376239977896 0.524240204753 0.0
0.70069519869 0.439557790372 0.0
0.101410666058 0.89901451379 0.0
0.44780330555 0.759256551731 0.0
0.58325195344 0.224576435508 0.0
0.897469393928 0.101038572822 0.0
0.793877928419 0.0864577496785 0.0
0.907709790672 0.206690792462 0.0
0.201445303642 0.909231246938 0.0
0.0914399117194 0.799222282833 0.0
0.244827837894 0.555638964024 0.0
0.856720984475 0.890283041753 0.0
0.111200201989 0.144121523207 0.0
0.729838140591 0.66746752271 0.0
0.344400796146 0.274964738047 0.0

CELLS 106 424
3 25 31 37
3 25 38 31
3 24 41 51
3 26 52 35
3 24 42 52
3 35 52 50
3 26 32 36
3 26 35 32
3 24 51 39
3 27 43 33
3 28 34 44
3 27 33 64
3 28 65 34
3 17 35 16
3 20 21 36
3 24 52 40
3 28 51 41
3 10 11 37
3 7 38 6
3 30 52 42
3 14 48 33
3 23 34 47
3 12 13 43
3 5 44 4
3 15 50 48
3 22 47 49
3 22 23 47
3 15 48 14
3 27 64 42
3 28 41 65
3 24 39 42
3 33 43 62
3 34 63 44
3 1 53 8
3 1 9 53
3 27 42 39
3 5 46 44
3 12 43 45
3 24 40 41
3 25 37 54
3 29 41 40
3 10 37 59
3 7 60 38
3 20 36 57
3 17 58 35
3 25 61 38
3 32 57 36
3 32 35 58
3 28 44 46
3 27 45 43
3 15 16 50
3 22 49 21
3 31 59 37
3 31 38 60
3 30 50 52
3 29 49 47
3 30 48 50
3 13 62 43
3 4 44 63
3 14 33 62
3 23 63 34
3 21 49 36
3 16 35 50
3 5 6 46
3 12 45 11
3 3 56 18
3 3 19 56
3 28 61 51
3 28 46 61
3 25 39 51
3 11 45 37
3 6 38 46
3 26 40 52
3 26 36 55
3 25 54 39
3 37 45 54
3 26 55 40
3 7 8 60
3 10 59 9
3 27 39 54
3 2 62 13
3 0 4 63
3 29 40 55
3 2 14 62
3 0 63 23
3 20 57 19
3 17 18 58
3 36 49 55
3 27 54 45
3 38 61 46
3 29 55 49
3 8 53 60
3 9 59 53
3 29 47 65
3 30 64 48
3 29 65 41
3 30 42 64
3 25 51 61
3 34 65 47
3 33 48 64
3 31 53 59
3 31 60 53
3 19 57 56
3 18 56 58
3 32 56 57
3 32 58 56

CELL_TYPES 106
5 5 5 5 5 5 5 5 5 5 5 5 5 5 5 5 5 5 5 5 5 5 5 5 5 5 5 5 5 5 5 5 5 5 5 5 5 5 5 5 5 5 5 5 5 5 5 5 5 5 5 5 5 5 5 5 5 5 5 5 5 5 5 5 5 5 5 5 5 5 5 5 5 5 5 5 5 5 5 5 5 5 5 5 5 5 5 5 5 5 5 5 5 5 5 5 5 5 5 5 5 5 5 5 5 5 

POINT_DATA 66
