# vtk DataFile Version 1.0
2D Simulation C++
ASCII
DATASET UNSTRUCTURED_GRID
FIELD FieldData 1
NODES 1 2 int
66 106

POINTS 66 double
0.0 0.0 0.0
0.0 1.0 0.0
1.0 1.0 0.0
1.0 0.0 0.0
0.0 0.224003374577 0.0
0.0 0.448006749153 0.0
0.0 0.608711063862 0.0
0.0 0.769415378571 0.0
0.0 0.884707689285 0.0
0.115292325616 1.0 0.0
0.230584651232 1.0 0.0
0.391288936138 1.0 0.0
0.551993250847 1.0 0.0
0.775996625423 1.0 0.0
1.0 0.789787709713 0.0
1.0 0.579575359821 0.0
1.0 0.41641998291 0.0
1.0 0.253264576197 0.0
1.0 0.126632288098 0.0
0.873367726803 0.0 0.0
0.746735394001 0.0 0.0
0.583580076694 0.0 0.0
0.420424699783 0.0 0.0
0.210212349892 0.0 0.0
0.518336315064 0.492992998384 0.0
0.303019289926 0.698770165119 0.0
0.697367082025 0.281749261691 0.0
0.596974387833 0.743264745996 0.0
0.255975644771 0.408431605989 0.0
0.459814814662 0.254507685066 0.0
0.750059208764 0.561689801962 0.0
0.193553697425 0.807755652312 0.0
0.80136554534 0.192111021727 0.0
0.787546207047 0.770915379183 0.0
0.230028966764 0.215518571428 0.0
0.850140448173 0.331075716617 0.0
0.672274258911 0.128619227866 0.0
0.322773681213 0.866436710348 0.0
0.133238225204 0.680083537079 0.0
0.46723892809 0.639582738284 0.0
0.561635979147 0.353132123449 0.0
0.41354427693 0.394217126344 0.0
0.617368074941 0.588519443671 0.0
0.674089132276 0.880787719954 0.0
0.118798863333 0.328610504973 0.0
0.49536438467 0.876145045823 0.0
0.122732477559 0.508220969749 0.0
0.356566819782 0.139408427828 0.0
0.86196793678 0.647600066943 0.0
0.512208244462 0.122730282837 0.0
0.860144974088 0.491116577001 0.0
0.361544305777 0.53795514304 0.0
0.693444020339 0.439297445878 0.0
0.0969762990561 0.903619592303 0.0
0.433817110641 0.765821254936 0.0
0.583067524133 0.227689207592 0.0
0.899173248645 0.0995110260821 0.0
0.795890776566 0.0852593466068 0.0
0.909013097325 0.204756642126 0.0
0.195757830953 0.914107425025 0.0
0.0860818246037 0.805763198553 0.0
0.232821785391 0.570967605407 0.0
0.854164661443 0.888893950324 0.0
0.111293300358 0.14725625156 0.0
0.719176135284 0.66549262444 0.0
0.339711561329 0.285844457606 0.0

CELLS 106 424
3 25 31 37
3 25 38 31
3 24 41 51
3 26 52 35
3 24 42 52
3 35 52 50
3 26 32 36
3 26 35 32
3 24 51 39
3 27 43 33
3 28 34 44
3 27 33 64
3 28 65 34
3 17 35 16
3 20 21 36
3 24 52 40
3 28 51 41
3 10 11 37
3 7 38 6
3 30 52 42
3 14 48 33
3 23 34 47
3 12 13 43
3 5 44 4
3 15 50 48
3 22 47 49
3 22 23 47
3 15 48 14
3 27 64 42
3 28 41 65
3 24 39 42
3 33 43 62
3 34 63 44
3 1 53 8
3 1 9 53
3 27 42 39
3 5 46 44
3 12 43 45
3 24 40 41
3 25 37 54
3 29 41 40
3 10 37 59
3 7 60 38
3 20 36 57
3 17 58 35
3 25 61 38
3 32 57 36
3 32 35 58
3 28 44 46
3 27 45 43
3 15 16 50
3 22 49 21
3 31 59 37
3 31 38 60
3 30 50 52
3 29 49 47
3 30 48 50
3 13 62 43
3 4 44 63
3 14 33 62
3 23 63 34
3 21 49 36
3 16 35 50
3 5 6 46
3 12 45 11
3 3 56 18
3 3 19 56
3 28 61 51
3 28 46 61
3 25 39 51
3 11 45 37
3 6 38 46
3 26 40 52
3 26 36 55
3 25 54 39
3 37 45 54
3 26 55 40
3 7 8 60
3 10 59 9
3 27 39 54
3 2 62 13
3 0 4 63
3 29 40 55
3 2 14 62
3 0 63 23
3 20 57 19
3 17 18 58
3 36 49 55
3 27 54 45
3 38 61 46
3 29 55 49
3 8 53 60
3 9 59 53
3 29 47 65
3 30 64 48
3 29 65 41
3 30 42 64
3 25 51 61
3 34 65 47
3 33 48 64
3 31 53 59
3 31 60 53
3 19 57 56
3 18 56 58
3 32 56 57
3 32 58 56

CELL_TYPES 106
5 5 5 5 5 5 5 5 5 5 5 5 5 5 5 5 5 5 5 5 5 5 5 5 5 5 5 5 5 5 5 5 5 5 5 5 5 5 5 5 5 5 5 5 5 5 5 5 5 5 5 5 5 5 5 5 5 5 5 5 5 5 5 5 5 5 5 5 5 5 5 5 5 5 5 5 5 5 5 5 5 5 5 5 5 5 5 5 5 5 5 5 5 5 5 5 5 5 5 5 5 5 5 5 5 5 

POINT_DATA 66
