# vtk DataFile Version 1.0
2D Simulation C++
ASCII
DATASET UNSTRUCTURED_GRID
FIELD FieldData 1
NODES 1 2 int
73 120

POINTS 73 double
0.0 0.0 0.0
0.0 1.0 0.0
1.0 1.0 0.0
1.0 0.0 0.0
0.0 0.224003374577 0.0
0.0 0.448006749153 0.0
0.0 0.608711063862 0.0
0.0 0.769415378571 0.0
0.0 0.884707689285 0.0
0.115292325616 1.0 0.0
0.230584651232 1.0 0.0
0.391288936138 1.0 0.0
0.551993250847 1.0 0.0
0.775996625423 1.0 0.0
1.0 0.789787709713 0.0
1.0 0.579575359821 0.0
1.0 0.41641998291 0.0
1.0 0.253264576197 0.0
1.0 0.126632288098 0.0
0.873367726803 0.0 0.0
0.746735394001 0.0 0.0
0.583580076694 0.0 0.0
0.420424699783 0.0 0.0
0.210212349892 0.0 0.0
0.404574623219 0.595426357487 0.0
0.598044290179 0.401857022407 0.0
0.303725737101 0.307652772402 0.0
0.692126852574 0.69660575934 0.0
0.213592803996 0.786575303539 0.0
0.794183668454 0.205917421888 0.0
0.821332997175 0.427029463464 0.0
0.573064052009 0.178790362055 0.0
0.183055553544 0.576761223657 0.0
0.423143439053 0.816868927502 0.0
0.110248389514 0.889854109613 0.0
0.104484031805 0.777672362869 0.0
0.222696620091 0.89548045987 0.0
0.833457499195 0.839913600952 0.0
0.650166162052 0.866569298143 0.0
0.134122270539 0.350363435067 0.0
0.160250613319 0.166775245597 0.0
0.500139507873 0.499649599838 0.0
0.463095045955 0.36413194175 0.0
0.364709007553 0.463617067661 0.0
0.53616332375 0.635447099558 0.0
0.635600547383 0.53670422152 0.0
0.336637851596 0.13540744374 0.0
0.864535850275 0.663420689063 0.0
0.578498510714 0.280871948153 0.0
0.45404950378 0.230453951699 0.0
0.769415879278 0.545974235223 0.0
0.719239366081 0.42156399803 0.0
0.0951332913734 0.657513376106 0.0
0.105034746167 0.513938195595 0.0
0.486145708156 0.894878778731 0.0
0.343005431216 0.904594323245 0.0
0.231986805805 0.458689505592 0.0
0.285050749453 0.575992787499 0.0
0.424003498083 0.715025779321 0.0
0.54086139076 0.768747355209 0.0
0.892575173529 0.107444616043 0.0
0.901838237777 0.225789161546 0.0
0.774243772357 0.0982091844963 0.0
0.908855977656 0.354222869156 0.0
0.8963904885 0.500833204175 0.0
0.499209057045 0.10360554427 0.0
0.645808632228 0.0912015607463 0.0
0.30976779885 0.690363063598 0.0
0.321710588791 0.800023532597 0.0
0.199883792602 0.678627733968 0.0
0.681133169305 0.192377288962 0.0
0.80778332916 0.318985449313 0.0
0.697200268517 0.302997468148 0.0

CELLS 120 480
3 1 34 8
3 34 35 8
3 34 28 35
3 8 35 7
3 1 9 34
3 9 36 34
3 9 10 36
3 34 36 28
3 2 37 13
3 37 38 13
3 37 27 38
3 13 38 12
3 0 4 40
3 4 39 40
3 4 5 39
3 40 39 26
3 24 41 43
3 41 42 43
3 41 25 42
3 43 42 26
3 24 44 41
3 44 45 41
3 44 27 45
3 41 45 25
3 0 40 23
3 40 46 23
3 40 26 46
3 23 46 22
3 2 14 37
3 14 47 37
3 14 15 47
3 37 47 27
3 25 48 42
3 48 49 42
3 48 31 49
3 42 49 26
3 25 45 51
3 45 50 51
3 45 27 50
3 51 50 30
3 5 6 53
3 6 52 53
3 6 7 52
3 53 52 32
3 10 11 55
3 11 54 55
3 11 12 54
3 55 54 33
3 24 43 57
3 43 56 57
3 43 26 56
3 57 56 32
3 24 58 44
3 58 59 44
3 58 33 59
3 44 59 27
3 3 60 18
3 60 61 18
3 60 29 61
3 18 61 17
3 3 19 60
3 19 62 60
3 19 20 62
3 60 62 29
3 5 53 39
3 53 56 39
3 53 32 56
3 39 56 26
3 12 38 54
3 38 59 54
3 38 27 59
3 54 59 33
3 15 16 64
3 16 63 64
3 16 17 63
3 64 63 30
3 20 21 66
3 21 65 66
3 21 22 65
3 66 65 31
3 22 46 65
3 46 49 65
3 46 26 49
3 65 49 31
3 15 64 47
3 64 50 47
3 64 30 50
3 47 50 27
3 24 67 58
3 67 68 58
3 67 28 68
3 58 68 33
3 24 57 67
3 57 69 67
3 57 32 69
3 67 69 28
3 7 35 52
3 35 69 52
3 35 28 69
3 52 69 32
3 10 55 36
3 55 68 36
3 55 33 68
3 36 68 28
3 20 66 62
3 66 70 62
3 66 31 70
3 62 70 29
3 17 61 63
3 61 71 63
3 61 29 71
3 63 71 30
3 25 72 48
3 72 70 48
3 72 29 70
3 48 70 31
3 25 51 72
3 51 71 72
3 51 30 71
3 72 71 29

CELL_TYPES 120
5 5 5 5 5 5 5 5 5 5 5 5 5 5 5 5 5 5 5 5 5 5 5 5 5 5 5 5 5 5 5 5 5 5 5 5 5 5 5 5 5 5 5 5 5 5 5 5 5 5 5 5 5 5 5 5 5 5 5 5 5 5 5 5 5 5 5 5 5 5 5 5 5 5 5 5 5 5 5 5 5 5 5 5 5 5 5 5 5 5 5 5 5 5 5 5 5 5 5 5 5 5 5 5 5 5 5 5 5 5 5 5 5 5 5 5 5 5 5 5 

POINT_DATA 73
