# vtk DataFile Version 1.0
2D Simulation C++
ASCII
DATASET UNSTRUCTURED_GRID
FIELD FieldData 1
NODES 1 2 int
66 106

POINTS 66 double
0.0 0.0 0.0
0.0 1.0 0.0
1.0 1.0 0.0
1.0 0.0 0.0
0.0 0.224003374577 0.0
0.0 0.448006749153 0.0
0.0 0.608711063862 0.0
0.0 0.769415378571 0.0
0.0 0.884707689285 0.0
0.115292325616 1.0 0.0
0.230584651232 1.0 0.0
0.391288936138 1.0 0.0
0.551993250847 1.0 0.0
0.775996625423 1.0 0.0
1.0 0.789787709713 0.0
1.0 0.579575359821 0.0
1.0 0.41641998291 0.0
1.0 0.253264576197 0.0
1.0 0.126632288098 0.0
0.873367726803 0.0 0.0
0.746735394001 0.0 0.0
0.583580076694 0.0 0.0
0.420424699783 0.0 0.0
0.210212349892 0.0 0.0
0.531269423497 0.486149198838 0.0
0.317411559658 0.686276447927 0.0
0.698222160793 0.281965161897 0.0
0.609285202348 0.741993693003 0.0
0.264020723961 0.394983868159 0.0
0.462726133077 0.247190607674 0.0
0.75898127388 0.56423203378 0.0
0.203235845773 0.798162446321 0.0
0.799257852486 0.194254446407 0.0
0.794286341346 0.772881737931 0.0
0.232005879703 0.207790382923 0.0
0.851181026033 0.333112473496 0.0
0.670582790546 0.128508543445 0.0
0.331393298229 0.860333430154 0.0
0.141345692569 0.670046488956 0.0
0.483562533624 0.631676471228 0.0
0.567611700036 0.348373655649 0.0
0.422897147362 0.383091000683 0.0
0.630706931832 0.587294009692 0.0
0.679319765384 0.881605319166 0.0
0.120927357252 0.322031141327 0.0
0.503003307339 0.874321127971 0.0
0.127938411859 0.498568341557 0.0
0.35732129252 0.133805803349 0.0
0.867446265362 0.650088348497 0.0
0.511591967003 0.119539670829 0.0
0.863945970888 0.493710439575 0.0
0.376276106917 0.524211466945 0.0
0.700720731085 0.439545862576 0.0
0.101420088512 0.899005923431 0.0
0.44783376374 0.759238300135 0.0
0.583268183003 0.224562302493 0.0
0.897471745815 0.101037270129 0.0
0.793881337876 0.0864556830497 0.0
0.907713891893 0.20668871833 0.0
0.201457399515 0.909221683263 0.0
0.0914513117707 0.799211145417 0.0
0.244856749789 0.5556131277 0.0
0.85672695243 0.890283288062 0.0
0.111203776724 0.144116559192 0.0
0.729865196088 0.667460359717 0.0
0.344422139345 0.274942099959 0.0

CELLS 106 424
3 25 31 37
3 25 38 31
3 24 41 51
3 26 52 35
3 24 42 52
3 35 52 50
3 26 32 36
3 26 35 32
3 24 51 39
3 27 43 33
3 28 34 44
3 27 33 64
3 28 65 34
3 17 35 16
3 20 21 36
3 24 52 40
3 28 51 41
3 10 11 37
3 7 38 6
3 30 52 42
3 14 48 33
3 23 34 47
3 12 13 43
3 5 44 4
3 15 50 48
3 22 47 49
3 22 23 47
3 15 48 14
3 27 64 42
3 28 41 65
3 24 39 42
3 33 43 62
3 34 63 44
3 1 53 8
3 1 9 53
3 27 42 39
3 5 46 44
3 12 43 45
3 24 40 41
3 25 37 54
3 29 41 40
3 10 37 59
3 7 60 38
3 20 36 57
3 17 58 35
3 25 61 38
3 32 57 36
3 32 35 58
3 28 44 46
3 27 45 43
3 15 16 50
3 22 49 21
3 31 59 37
3 31 38 60
3 30 50 52
3 29 49 47
3 30 48 50
3 13 62 43
3 4 44 63
3 14 33 62
3 23 63 34
3 21 49 36
3 16 35 50
3 5 6 46
3 12 45 11
3 3 56 18
3 3 19 56
3 28 61 51
3 28 46 61
3 25 39 51
3 11 45 37
3 6 38 46
3 26 40 52
3 26 36 55
3 25 54 39
3 37 45 54
3 26 55 40
3 7 8 60
3 10 59 9
3 27 39 54
3 2 62 13
3 0 4 63
3 29 40 55
3 2 14 62
3 0 63 23
3 20 57 19
3 17 18 58
3 36 49 55
3 27 54 45
3 38 61 46
3 29 55 49
3 8 53 60
3 9 59 53
3 29 47 65
3 30 64 48
3 29 65 41
3 30 42 64
3 25 51 61
3 34 65 47
3 33 48 64
3 31 53 59
3 31 60 53
3 19 57 56
3 18 56 58
3 32 56 57
3 32 58 56

CELL_TYPES 106
5 5 5 5 5 5 5 5 5 5 5 5 5 5 5 5 5 5 5 5 5 5 5 5 5 5 5 5 5 5 5 5 5 5 5 5 5 5 5 5 5 5 5 5 5 5 5 5 5 5 5 5 5 5 5 5 5 5 5 5 5 5 5 5 5 5 5 5 5 5 5 5 5 5 5 5 5 5 5 5 5 5 5 5 5 5 5 5 5 5 5 5 5 5 5 5 5 5 5 5 5 5 5 5 5 5 

POINT_DATA 66
