# vtk DataFile Version 1.0
2D Simulation C++
ASCII
DATASET UNSTRUCTURED_GRID
FIELD FieldData 1
NODES 1 2 int
73 120

POINTS 73 double
0.0 0.0 0.0
0.0 1.0 0.0
1.0 1.0 0.0
1.0 0.0 0.0
0.0 0.224003374577 0.0
0.0 0.448006749153 0.0
0.0 0.608711063862 0.0
0.0 0.769415378571 0.0
0.0 0.884707689285 0.0
0.115292325616 1.0 0.0
0.230584651232 1.0 0.0
0.391288936138 1.0 0.0
0.551993250847 1.0 0.0
0.775996625423 1.0 0.0
1.0 0.789787709713 0.0
1.0 0.579575359821 0.0
1.0 0.41641998291 0.0
1.0 0.253264576197 0.0
1.0 0.126632288098 0.0
0.873367726803 0.0 0.0
0.746735394001 0.0 0.0
0.583580076694 0.0 0.0
0.420424699783 0.0 0.0
0.210212349892 0.0 0.0
0.405178909201 0.594847821333 0.0
0.593628816883 0.406395168811 0.0
0.29774532824 0.302392086484 0.0
0.697605171789 0.702295843984 0.0
0.209503105956 0.790530074584 0.0
0.787784889515 0.2122412824 0.0
0.818710247949 0.438192918064 0.0
0.561845023128 0.181295117345 0.0
0.181203686532 0.571144516312 0.0
0.428876448194 0.818839623203 0.0
0.107540647225 0.892476333618 0.0
0.100975307042 0.777886947633 0.0
0.222134783866 0.899047834005 0.0
0.836583267933 0.842371017304 0.0
0.656633861927 0.870291681737 0.0
0.129738648519 0.343370365451 0.0
0.15764824565 0.163416097283 0.0
0.499462754291 0.500558475437 0.0
0.456792611159 0.36281989021 0.0
0.361393572604 0.459475193043 0.0
0.540532957943 0.638645873572 0.0
0.637182909155 0.543246956357 0.0
0.33095767628 0.132391559036 0.0
0.867604187054 0.669066677225 0.0
0.568424459161 0.283317562996 0.0
0.443972480359 0.229229026448 0.0
0.770767215752 0.556067106533 0.0
0.716693875156 0.43161669248 0.0
0.0939314887246 0.653259824361 0.0
0.104009835965 0.507946023002 0.0
0.492064403847 0.896020898745 0.0
0.346757756468 0.906095180963 0.0
0.227758689259 0.451598153595 0.0
0.282847149917 0.572506144348 0.0
0.427514604966 0.717194245293 0.0
0.548411518726 0.772287864838 0.0
0.889385042759 0.110626845946 0.0
0.89852639118 0.231426762087 0.0
0.768592570588 0.101486803194 0.0
0.906070956734 0.36147711333 0.0
0.895600951285 0.507938039278 0.0
0.492087382133 0.104397308378 0.0
0.638544197399 0.0939359499182 0.0
0.308279068776 0.691755358673 0.0
0.322296670582 0.803275416977 0.0
0.196762594635 0.677733316704 0.0
0.671523681655 0.197071488555 0.0
0.80294684412 0.328511438224 0.0
0.689977591199 0.310052409442 0.0

CELLS 120 480
3 1 34 8
3 34 35 8
3 34 28 35
3 8 35 7
3 1 9 34
3 9 36 34
3 9 10 36
3 34 36 28
3 2 37 13
3 37 38 13
3 37 27 38
3 13 38 12
3 0 4 40
3 4 39 40
3 4 5 39
3 40 39 26
3 24 41 43
3 41 42 43
3 41 25 42
3 43 42 26
3 24 44 41
3 44 45 41
3 44 27 45
3 41 45 25
3 0 40 23
3 40 46 23
3 40 26 46
3 23 46 22
3 2 14 37
3 14 47 37
3 14 15 47
3 37 47 27
3 25 48 42
3 48 49 42
3 48 31 49
3 42 49 26
3 25 45 51
3 45 50 51
3 45 27 50
3 51 50 30
3 5 6 53
3 6 52 53
3 6 7 52
3 53 52 32
3 10 11 55
3 11 54 55
3 11 12 54
3 55 54 33
3 24 43 57
3 43 56 57
3 43 26 56
3 57 56 32
3 24 58 44
3 58 59 44
3 58 33 59
3 44 59 27
3 3 60 18
3 60 61 18
3 60 29 61
3 18 61 17
3 3 19 60
3 19 62 60
3 19 20 62
3 60 62 29
3 5 53 39
3 53 56 39
3 53 32 56
3 39 56 26
3 12 38 54
3 38 59 54
3 38 27 59
3 54 59 33
3 15 16 64
3 16 63 64
3 16 17 63
3 64 63 30
3 20 21 66
3 21 65 66
3 21 22 65
3 66 65 31
3 22 46 65
3 46 49 65
3 46 26 49
3 65 49 31
3 15 64 47
3 64 50 47
3 64 30 50
3 47 50 27
3 24 67 58
3 67 68 58
3 67 28 68
3 58 68 33
3 24 57 67
3 57 69 67
3 57 32 69
3 67 69 28
3 7 35 52
3 35 69 52
3 35 28 69
3 52 69 32
3 10 55 36
3 55 68 36
3 55 33 68
3 36 68 28
3 20 66 62
3 66 70 62
3 66 31 70
3 62 70 29
3 17 61 63
3 61 71 63
3 61 29 71
3 63 71 30
3 25 72 48
3 72 70 48
3 72 29 70
3 48 70 31
3 25 51 72
3 51 71 72
3 51 30 71
3 72 71 29

CELL_TYPES 120
5 5 5 5 5 5 5 5 5 5 5 5 5 5 5 5 5 5 5 5 5 5 5 5 5 5 5 5 5 5 5 5 5 5 5 5 5 5 5 5 5 5 5 5 5 5 5 5 5 5 5 5 5 5 5 5 5 5 5 5 5 5 5 5 5 5 5 5 5 5 5 5 5 5 5 5 5 5 5 5 5 5 5 5 5 5 5 5 5 5 5 5 5 5 5 5 5 5 5 5 5 5 5 5 5 5 5 5 5 5 5 5 5 5 5 5 5 5 5 5 

POINT_DATA 73
