# vtk DataFile Version 1.0
2D Simulation C++
ASCII
DATASET UNSTRUCTURED_GRID
FIELD FieldData 1
NODES 1 2 int
73 120

POINTS 73 double
0.0 0.0 0.0
0.0 1.0 0.0
1.0 1.0 0.0
1.0 0.0 0.0
0.0 0.224003374577 0.0
0.0 0.448006749153 0.0
0.0 0.608711063862 0.0
0.0 0.769415378571 0.0
0.0 0.884707689285 0.0
0.115292325616 1.0 0.0
0.230584651232 1.0 0.0
0.391288936138 1.0 0.0
0.551993250847 1.0 0.0
0.775996625423 1.0 0.0
1.0 0.789787709713 0.0
1.0 0.579575359821 0.0
1.0 0.41641998291 0.0
1.0 0.253264576197 0.0
1.0 0.126632288098 0.0
0.873367726803 0.0 0.0
0.746735394001 0.0 0.0
0.583580076694 0.0 0.0
0.420424699783 0.0 0.0
0.210212349892 0.0 0.0
0.404976658918 0.595014682919 0.0
0.597456166493 0.402479677856 0.0
0.302680783632 0.306308467506 0.0
0.693549536614 0.697567901755 0.0
0.211912258231 0.788227555868 0.0
0.79311798077 0.206972779488 0.0
0.820641917816 0.429479954413 0.0
0.570598994994 0.179428391729 0.0
0.183041285452 0.575488433892 0.0
0.424509482657 0.816966959805 0.0
0.109180526956 0.890915510445 0.0
0.103222984024 0.778000002697 0.0
0.222248333473 0.89677936995 0.0
0.834025467525 0.840098383767 0.0
0.652288542942 0.867550944969 0.0
0.132835413366 0.347934882487 0.0
0.160027675251 0.166088307322 0.0
0.500401471893 0.499470495447 0.0
0.462131342677 0.363535258216 0.0
0.364294812433 0.462423831675 0.0
0.537418386459 0.635835393601 0.0
0.636285188184 0.537823139064 0.0
0.335289997808 0.134590823189 0.0
0.865358706602 0.664779134281 0.0
0.576410426042 0.281063753333 0.0
0.451795776539 0.230162708085 0.0
0.769735632261 0.548268296507 0.0
0.718981711789 0.423646193413 0.0
0.0951012704466 0.656117066393 0.0
0.105349396191 0.512250837026 0.0
0.487838772021 0.89470912706 0.0
0.344149468148 0.904789848995 0.0
0.231047879538 0.456964483366 0.0
0.284802065277 0.575207092549 0.0
0.424785768402 0.715275306654 0.0
0.542874595734 0.769374854667 0.0
0.892040279305 0.107983771552 0.0
0.90127000405 0.226962061919 0.0
0.773073964151 0.0987801680584 0.0
0.908137162738 0.356025954756 0.0
0.895851520325 0.502527518901 0.0
0.497522541751 0.104139053208 0.0
0.644008636182 0.0919155538008 0.0
0.309254727918 0.690829581683 0.0
0.321492275877 0.800880640449 0.0
0.199093577205 0.678717277068 0.0
0.679226734921 0.193225070615 0.0
0.806895658358 0.320869451766 0.0
0.69593264852 0.304193147146 0.0

CELLS 120 480
3 1 34 8
3 34 35 8
3 34 28 35
3 8 35 7
3 1 9 34
3 9 36 34
3 9 10 36
3 34 36 28
3 2 37 13
3 37 38 13
3 37 27 38
3 13 38 12
3 0 4 40
3 4 39 40
3 4 5 39
3 40 39 26
3 24 41 43
3 41 42 43
3 41 25 42
3 43 42 26
3 24 44 41
3 44 45 41
3 44 27 45
3 41 45 25
3 0 40 23
3 40 46 23
3 40 26 46
3 23 46 22
3 2 14 37
3 14 47 37
3 14 15 47
3 37 47 27
3 25 48 42
3 48 49 42
3 48 31 49
3 42 49 26
3 25 45 51
3 45 50 51
3 45 27 50
3 51 50 30
3 5 6 53
3 6 52 53
3 6 7 52
3 53 52 32
3 10 11 55
3 11 54 55
3 11 12 54
3 55 54 33
3 24 43 57
3 43 56 57
3 43 26 56
3 57 56 32
3 24 58 44
3 58 59 44
3 58 33 59
3 44 59 27
3 3 60 18
3 60 61 18
3 60 29 61
3 18 61 17
3 3 19 60
3 19 62 60
3 19 20 62
3 60 62 29
3 5 53 39
3 53 56 39
3 53 32 56
3 39 56 26
3 12 38 54
3 38 59 54
3 38 27 59
3 54 59 33
3 15 16 64
3 16 63 64
3 16 17 63
3 64 63 30
3 20 21 66
3 21 65 66
3 21 22 65
3 66 65 31
3 22 46 65
3 46 49 65
3 46 26 49
3 65 49 31
3 15 64 47
3 64 50 47
3 64 30 50
3 47 50 27
3 24 67 58
3 67 68 58
3 67 28 68
3 58 68 33
3 24 57 67
3 57 69 67
3 57 32 69
3 67 69 28
3 7 35 52
3 35 69 52
3 35 28 69
3 52 69 32
3 10 55 36
3 55 68 36
3 55 33 68
3 36 68 28
3 20 66 62
3 66 70 62
3 66 31 70
3 62 70 29
3 17 61 63
3 61 71 63
3 61 29 71
3 63 71 30
3 25 72 48
3 72 70 48
3 72 29 70
3 48 70 31
3 25 51 72
3 51 71 72
3 51 30 71
3 72 71 29

CELL_TYPES 120
5 5 5 5 5 5 5 5 5 5 5 5 5 5 5 5 5 5 5 5 5 5 5 5 5 5 5 5 5 5 5 5 5 5 5 5 5 5 5 5 5 5 5 5 5 5 5 5 5 5 5 5 5 5 5 5 5 5 5 5 5 5 5 5 5 5 5 5 5 5 5 5 5 5 5 5 5 5 5 5 5 5 5 5 5 5 5 5 5 5 5 5 5 5 5 5 5 5 5 5 5 5 5 5 5 5 5 5 5 5 5 5 5 5 5 5 5 5 5 5 

POINT_DATA 73
