# vtk DataFile Version 1.0
2D Simulation C++
ASCII
DATASET UNSTRUCTURED_GRID
FIELD FieldData 1
NODES 1 2 int
73 120

POINTS 73 double
0.0 0.0 0.0
0.0 1.0 0.0
1.0 1.0 0.0
1.0 0.0 0.0
0.0 0.224003374577 0.0
0.0 0.448006749153 0.0
0.0 0.608711063862 0.0
0.0 0.769415378571 0.0
0.0 0.884707689285 0.0
0.115292325616 1.0 0.0
0.230584651232 1.0 0.0
0.391288936138 1.0 0.0
0.551993250847 1.0 0.0
0.775996625423 1.0 0.0
1.0 0.789787709713 0.0
1.0 0.579575359821 0.0
1.0 0.41641998291 0.0
1.0 0.253264576197 0.0
1.0 0.126632288098 0.0
0.873367726803 0.0 0.0
0.746735394001 0.0 0.0
0.583580076694 0.0 0.0
0.420424699783 0.0 0.0
0.210212349892 0.0 0.0
0.405186078933 0.594840646439 0.0
0.593660803591 0.406363151899 0.0
0.297775421164 0.302402747647 0.0
0.697594183962 0.702266302494 0.0
0.20950481654 0.790528781063 0.0
0.787818457464 0.212208014308 0.0
0.818722556341 0.438148394863 0.0
0.561889938277 0.18128274401 0.0
0.181219769435 0.571161058147 0.0
0.428860152352 0.818824012267 0.0
0.107541513646 0.892475750466 0.0
0.100979960973 0.77789102055 0.0
0.222131100718 0.899043441216 0.0
0.83657440827 0.842356805198 0.0
0.656621641733 0.870275466394 0.0
0.129755375835 0.343382606302 0.0
0.157662757492 0.163424875614 0.0
0.499480689081 0.500540411616 0.0
0.456829717207 0.362811814418 0.0
0.361417876941 0.459479273494 0.0
0.540528564739 0.638621908165 0.0
0.637190588327 0.543210145473 0.0
0.330979697844 0.13239842582 0.0
0.867597098198 0.669044979821 0.0
0.568471531756 0.283296072285 0.0
0.444013914939 0.229227950177 0.0
0.770767937885 0.556026102149 0.0
0.716715252576 0.431569965209 0.0
0.0939397332992 0.653269514777 0.0
0.104022462359 0.507959070349 0.0
0.492051510723 0.896008727504 0.0
0.34674838163 0.90608720154 0.0
0.227780981415 0.451614899434 0.0
0.282862666888 0.572515426327 0.0
0.427505349588 0.717179064419 0.0
0.548394725182 0.772266216524 0.0
0.889401419041 0.110610610511 0.0
0.89854381665 0.231402617871 0.0
0.768616923761 0.10146955509 0.0
0.906081812187 0.361451021146 0.0
0.895601715717 0.507912319312 0.0
0.492113405629 0.104396405997 0.0
0.638570515641 0.0939251693386 0.0
0.308281824776 0.691752838719 0.0
0.322288844468 0.803265979102 0.0
0.196772362427 0.677741523999 0.0
0.671567157678 0.197045574249 0.0
0.802972938785 0.328468320425 0.0
0.69001713199 0.310013099174 0.0

CELLS 120 480
3 1 34 8
3 34 35 8
3 34 28 35
3 8 35 7
3 1 9 34
3 9 36 34
3 9 10 36
3 34 36 28
3 2 37 13
3 37 38 13
3 37 27 38
3 13 38 12
3 0 4 40
3 4 39 40
3 4 5 39
3 40 39 26
3 24 41 43
3 41 42 43
3 41 25 42
3 43 42 26
3 24 44 41
3 44 45 41
3 44 27 45
3 41 45 25
3 0 40 23
3 40 46 23
3 40 26 46
3 23 46 22
3 2 14 37
3 14 47 37
3 14 15 47
3 37 47 27
3 25 48 42
3 48 49 42
3 48 31 49
3 42 49 26
3 25 45 51
3 45 50 51
3 45 27 50
3 51 50 30
3 5 6 53
3 6 52 53
3 6 7 52
3 53 52 32
3 10 11 55
3 11 54 55
3 11 12 54
3 55 54 33
3 24 43 57
3 43 56 57
3 43 26 56
3 57 56 32
3 24 58 44
3 58 59 44
3 58 33 59
3 44 59 27
3 3 60 18
3 60 61 18
3 60 29 61
3 18 61 17
3 3 19 60
3 19 62 60
3 19 20 62
3 60 62 29
3 5 53 39
3 53 56 39
3 53 32 56
3 39 56 26
3 12 38 54
3 38 59 54
3 38 27 59
3 54 59 33
3 15 16 64
3 16 63 64
3 16 17 63
3 64 63 30
3 20 21 66
3 21 65 66
3 21 22 65
3 66 65 31
3 22 46 65
3 46 49 65
3 46 26 49
3 65 49 31
3 15 64 47
3 64 50 47
3 64 30 50
3 47 50 27
3 24 67 58
3 67 68 58
3 67 28 68
3 58 68 33
3 24 57 67
3 57 69 67
3 57 32 69
3 67 69 28
3 7 35 52
3 35 69 52
3 35 28 69
3 52 69 32
3 10 55 36
3 55 68 36
3 55 33 68
3 36 68 28
3 20 66 62
3 66 70 62
3 66 31 70
3 62 70 29
3 17 61 63
3 61 71 63
3 61 29 71
3 63 71 30
3 25 72 48
3 72 70 48
3 72 29 70
3 48 70 31
3 25 51 72
3 51 71 72
3 51 30 71
3 72 71 29

CELL_TYPES 120
5 5 5 5 5 5 5 5 5 5 5 5 5 5 5 5 5 5 5 5 5 5 5 5 5 5 5 5 5 5 5 5 5 5 5 5 5 5 5 5 5 5 5 5 5 5 5 5 5 5 5 5 5 5 5 5 5 5 5 5 5 5 5 5 5 5 5 5 5 5 5 5 5 5 5 5 5 5 5 5 5 5 5 5 5 5 5 5 5 5 5 5 5 5 5 5 5 5 5 5 5 5 5 5 5 5 5 5 5 5 5 5 5 5 5 5 5 5 5 5 

POINT_DATA 73
