# vtk DataFile Version 1.0
2D Simulation C++
ASCII
DATASET UNSTRUCTURED_GRID
FIELD FieldData 1
NODES 1 2 int
73 120

POINTS 73 double
0.0 0.0 0.0
0.0 1.0 0.0
1.0 1.0 0.0
1.0 0.0 0.0
0.0 0.224003374577 0.0
0.0 0.448006749153 0.0
0.0 0.608711063862 0.0
0.0 0.769415378571 0.0
0.0 0.884707689285 0.0
0.115292325616 1.0 0.0
0.230584651232 1.0 0.0
0.391288936138 1.0 0.0
0.551993250847 1.0 0.0
0.775996625423 1.0 0.0
1.0 0.789787709713 0.0
1.0 0.579575359821 0.0
1.0 0.41641998291 0.0
1.0 0.253264576197 0.0
1.0 0.126632288098 0.0
0.873367726803 0.0 0.0
0.746735394001 0.0 0.0
0.583580076694 0.0 0.0
0.420424699783 0.0 0.0
0.210212349892 0.0 0.0
0.405390219106 0.594625843856 0.0
0.59549832981 0.404511102089 0.0
0.299753940848 0.303527893236 0.0
0.696437825361 0.700338634381 0.0
0.20983888144 0.790227540203 0.0
0.790021509917 0.210028110819 0.0
0.819421039929 0.435008571265 0.0
0.565051430606 0.180587365632 0.0
0.182191309121 0.572573688472 0.0
0.42746680522 0.81787625973 0.0
0.107767666634 0.892275872961 0.0
0.101456802719 0.778115841231 0.0
0.221949572966 0.898578714174 0.0
0.835765666042 0.841391098542 0.0
0.655477153534 0.869229257646 0.0
0.130858398824 0.344540099771 0.0
0.158656880167 0.164235619237 0.0
0.500290565117 0.499705117169 0.0
0.45913983818 0.362685250965 0.0
0.362812699318 0.460188152035 0.0
0.539781798391 0.63725288306 0.0
0.637273496116 0.540911547282 0.0
0.332533799849 0.133067805685 0.0
0.866909898433 0.66751465449 0.0
0.571583469811 0.282132597999 0.0
0.446875218388 0.229431105805 0.0
0.770533819509 0.553191278465 0.0
0.71787126019 0.428474602765 0.0
0.0944834139418 0.654085065841 0.0
0.104785918518 0.509146731925 0.0
0.490883137657 0.895281767645 0.0
0.345969237225 0.905547654247 0.0
0.229147627786 0.453191917474 0.0
0.283776339241 0.573394115431 0.0
0.426622952578 0.716283698687 0.0
0.546809593925 0.770963926112 0.0
0.890492084829 0.109528799036 0.0
0.899676363068 0.229730633958 0.0
0.770300478524 0.100352852752 0.0
0.906788488097 0.359574868554 0.0
0.895568317395 0.506053491906 0.0
0.493990441022 0.104421675962 0.0
0.640458180518 0.0932305158527 0.0
0.308474130242 0.691571933558 0.0
0.321755558598 0.802541872624 0.0
0.197505235806 0.678310382998 0.0
0.674525430952 0.195433962297 0.0
0.80460636548 0.325532393382 0.0
0.692517713721 0.307530523403 0.0

CELLS 120 480
3 1 34 8
3 34 35 8
3 34 28 35
3 8 35 7
3 1 9 34
3 9 36 34
3 9 10 36
3 34 36 28
3 2 37 13
3 37 38 13
3 37 27 38
3 13 38 12
3 0 4 40
3 4 39 40
3 4 5 39
3 40 39 26
3 24 41 43
3 41 42 43
3 41 25 42
3 43 42 26
3 24 44 41
3 44 45 41
3 44 27 45
3 41 45 25
3 0 40 23
3 40 46 23
3 40 26 46
3 23 46 22
3 2 14 37
3 14 47 37
3 14 15 47
3 37 47 27
3 25 48 42
3 48 49 42
3 48 31 49
3 42 49 26
3 25 45 51
3 45 50 51
3 45 27 50
3 51 50 30
3 5 6 53
3 6 52 53
3 6 7 52
3 53 52 32
3 10 11 55
3 11 54 55
3 11 12 54
3 55 54 33
3 24 43 57
3 43 56 57
3 43 26 56
3 57 56 32
3 24 58 44
3 58 59 44
3 58 33 59
3 44 59 27
3 3 60 18
3 60 61 18
3 60 29 61
3 18 61 17
3 3 19 60
3 19 62 60
3 19 20 62
3 60 62 29
3 5 53 39
3 53 56 39
3 53 32 56
3 39 56 26
3 12 38 54
3 38 59 54
3 38 27 59
3 54 59 33
3 15 16 64
3 16 63 64
3 16 17 63
3 64 63 30
3 20 21 66
3 21 65 66
3 21 22 65
3 66 65 31
3 22 46 65
3 46 49 65
3 46 26 49
3 65 49 31
3 15 64 47
3 64 50 47
3 64 30 50
3 47 50 27
3 24 67 58
3 67 68 58
3 67 28 68
3 58 68 33
3 24 57 67
3 57 69 67
3 57 32 69
3 67 69 28
3 7 35 52
3 35 69 52
3 35 28 69
3 52 69 32
3 10 55 36
3 55 68 36
3 55 33 68
3 36 68 28
3 20 66 62
3 66 70 62
3 66 31 70
3 62 70 29
3 17 61 63
3 61 71 63
3 61 29 71
3 63 71 30
3 25 72 48
3 72 70 48
3 72 29 70
3 48 70 31
3 25 51 72
3 51 71 72
3 51 30 71
3 72 71 29

CELL_TYPES 120
5 5 5 5 5 5 5 5 5 5 5 5 5 5 5 5 5 5 5 5 5 5 5 5 5 5 5 5 5 5 5 5 5 5 5 5 5 5 5 5 5 5 5 5 5 5 5 5 5 5 5 5 5 5 5 5 5 5 5 5 5 5 5 5 5 5 5 5 5 5 5 5 5 5 5 5 5 5 5 5 5 5 5 5 5 5 5 5 5 5 5 5 5 5 5 5 5 5 5 5 5 5 5 5 5 5 5 5 5 5 5 5 5 5 5 5 5 5 5 5 

POINT_DATA 73
