# vtk DataFile Version 1.0
2D Simulation C++
ASCII
DATASET UNSTRUCTURED_GRID
FIELD FieldData 1
NODES 1 2 int
66 106

POINTS 66 double
0.0 0.0 0.0
0.0 1.0 0.0
1.0 1.0 0.0
1.0 0.0 0.0
0.0 0.224003374577 0.0
0.0 0.448006749153 0.0
0.0 0.608711063862 0.0
0.0 0.769415378571 0.0
0.0 0.884707689285 0.0
0.115292325616 1.0 0.0
0.230584651232 1.0 0.0
0.391288936138 1.0 0.0
0.551993250847 1.0 0.0
0.775996625423 1.0 0.0
1.0 0.789787709713 0.0
1.0 0.579575359821 0.0
1.0 0.41641998291 0.0
1.0 0.253264576197 0.0
1.0 0.126632288098 0.0
0.873367726803 0.0 0.0
0.746735394001 0.0 0.0
0.583580076694 0.0 0.0
0.420424699783 0.0 0.0
0.210212349892 0.0 0.0
0.523584217591 0.490664265108 0.0
0.309344132007 0.693044241778 0.0
0.696485797724 0.282676056098 0.0
0.602290092767 0.743373284952 0.0
0.258944384865 0.401941368247 0.0
0.459942104064 0.251719829954 0.0
0.753292874173 0.563897892617 0.0
0.197769088632 0.803362889369 0.0
0.799371777074 0.19377723704 0.0
0.790358360684 0.77228723566 0.0
0.230195592708 0.211874143612 0.0
0.849841258655 0.332811976616 0.0
0.670541223071 0.128954995572 0.0
0.326570825068 0.863833872005 0.0
0.136745490067 0.675115451877 0.0
0.474356612582 0.636615803249 0.0
0.563253193243 0.351822681609 0.0
0.417002311022 0.389622383333 0.0
0.62273388662 0.588834442793 0.0
0.676280757163 0.88152033911 0.0
0.119177088843 0.325376586291 0.0
0.498717783374 0.875716536789 0.0
0.124625842327 0.503303079132 0.0
0.356126922856 0.137027541594 0.0
0.864053140071 0.649381247994 0.0
0.510989055407 0.121550986063 0.0
0.861268452388 0.493163023984 0.0
0.367859024683 0.53176485356 0.0
0.695847417247 0.440448266744 0.0
0.0988916988071 0.901575307904 0.0
0.440019448976 0.763354691893 0.0
0.581789441193 0.226850183775 0.0
0.89789791305 0.100580724025 0.0
0.794318577621 0.0861385010825 0.0
0.907819856133 0.206196773682 0.0
0.198250512371 0.911981967791 0.0
0.0884163766389 0.802660718068 0.0
0.237900189412 0.563336389789 0.0
0.855138453578 0.889720056759 0.0
0.110863915657 0.145808408482 0.0
0.723457781647 0.667191262827 0.0
0.340882144743 0.281031809854 0.0

CELLS 106 424
3 25 31 37
3 25 38 31
3 24 41 51
3 26 52 35
3 24 42 52
3 35 52 50
3 26 32 36
3 26 35 32
3 24 51 39
3 27 43 33
3 28 34 44
3 27 33 64
3 28 65 34
3 17 35 16
3 20 21 36
3 24 52 40
3 28 51 41
3 10 11 37
3 7 38 6
3 30 52 42
3 14 48 33
3 23 34 47
3 12 13 43
3 5 44 4
3 15 50 48
3 22 47 49
3 22 23 47
3 15 48 14
3 27 64 42
3 28 41 65
3 24 39 42
3 33 43 62
3 34 63 44
3 1 53 8
3 1 9 53
3 27 42 39
3 5 46 44
3 12 43 45
3 24 40 41
3 25 37 54
3 29 41 40
3 10 37 59
3 7 60 38
3 20 36 57
3 17 58 35
3 25 61 38
3 32 57 36
3 32 35 58
3 28 44 46
3 27 45 43
3 15 16 50
3 22 49 21
3 31 59 37
3 31 38 60
3 30 50 52
3 29 49 47
3 30 48 50
3 13 62 43
3 4 44 63
3 14 33 62
3 23 63 34
3 21 49 36
3 16 35 50
3 5 6 46
3 12 45 11
3 3 56 18
3 3 19 56
3 28 61 51
3 28 46 61
3 25 39 51
3 11 45 37
3 6 38 46
3 26 40 52
3 26 36 55
3 25 54 39
3 37 45 54
3 26 55 40
3 7 8 60
3 10 59 9
3 27 39 54
3 2 62 13
3 0 4 63
3 29 40 55
3 2 14 62
3 0 63 23
3 20 57 19
3 17 18 58
3 36 49 55
3 27 54 45
3 38 61 46
3 29 55 49
3 8 53 60
3 9 59 53
3 29 47 65
3 30 64 48
3 29 65 41
3 30 42 64
3 25 51 61
3 34 65 47
3 33 48 64
3 31 53 59
3 31 60 53
3 19 57 56
3 18 56 58
3 32 56 57
3 32 58 56

CELL_TYPES 106
5 5 5 5 5 5 5 5 5 5 5 5 5 5 5 5 5 5 5 5 5 5 5 5 5 5 5 5 5 5 5 5 5 5 5 5 5 5 5 5 5 5 5 5 5 5 5 5 5 5 5 5 5 5 5 5 5 5 5 5 5 5 5 5 5 5 5 5 5 5 5 5 5 5 5 5 5 5 5 5 5 5 5 5 5 5 5 5 5 5 5 5 5 5 5 5 5 5 5 5 5 5 5 5 5 5 

POINT_DATA 66
