# vtk DataFile Version 1.0
2D Simulation C++
ASCII
DATASET UNSTRUCTURED_GRID
FIELD FieldData 1
NODES 1 2 int
73 120

POINTS 73 double
0.0 0.0 0.0
0.0 1.0 0.0
1.0 1.0 0.0
1.0 0.0 0.0
0.0 0.224003374577 0.0
0.0 0.448006749153 0.0
0.0 0.608711063862 0.0
0.0 0.769415378571 0.0
0.0 0.884707689285 0.0
0.115292325616 1.0 0.0
0.230584651232 1.0 0.0
0.391288936138 1.0 0.0
0.551993250847 1.0 0.0
0.775996625423 1.0 0.0
1.0 0.789787709713 0.0
1.0 0.579575359821 0.0
1.0 0.41641998291 0.0
1.0 0.253264576197 0.0
1.0 0.126632288098 0.0
0.873367726803 0.0 0.0
0.746735394001 0.0 0.0
0.583580076694 0.0 0.0
0.420424699783 0.0 0.0
0.210212349892 0.0 0.0
0.405374916754 0.594635859151 0.0
0.595900767358 0.404100287822 0.0
0.300270056891 0.303934211878 0.0
0.696019577594 0.699841969133 0.0
0.210033359411 0.79004378262 0.0
0.790586503878 0.209470188141 0.0
0.819597655512 0.434119339564 0.0
0.565944675939 0.180415414851 0.0
0.18240593449 0.573026917178 0.0
0.427017184002 0.817662819267 0.0
0.107902819328 0.892149926954 0.0
0.101655176664 0.778144828191 0.0
0.221939908348 0.898380398827 0.0
0.835492215917 0.841136895105 0.0
0.655067027818 0.868960658441 0.0
0.131153240518 0.344961197842 0.0
0.158921655573 0.164514992404 0.0
0.500397088917 0.499585485876 0.0
0.459703104359 0.362757809129 0.0
0.363118598634 0.460490076306 0.0
0.539463782358 0.636955769476 0.0
0.637183538056 0.540346383447 0.0
0.332972842645 0.133294660256 0.0
0.866677815699 0.667081794581 0.0
0.572402325156 0.281893695022 0.0
0.447669594497 0.22954091089 0.0
0.770413830631 0.552402049289 0.0
0.718110126299 0.427657531422 0.0
0.0946194812098 0.654353840034 0.0
0.104953672365 0.509565178575 0.0
0.490473255376 0.895123980887 0.0
0.345717592131 0.905404777214 0.0
0.229476820103 0.453740559203 0.0
0.283985983675 0.573682051443 0.0
0.426332116591 0.716077837495 0.0
0.546254469127 0.770662805887 0.0
0.890774651689 0.109248005986 0.0
0.899965586889 0.22927030097 0.0
0.770762849903 0.10006855146 0.0
0.906986607213 0.359029911566 0.0
0.8955611947 0.505510302847 0.0
0.494537073184 0.104427508266 0.0
0.641004733289 0.0930378200507 0.0
0.308554996161 0.691493779902 0.0
0.321642819998 0.802306815461 0.0
0.197736503631 0.678437350377 0.0
0.675324141709 0.195036196159 0.0
0.805013961235 0.324739338768 0.0
0.69313870955 0.306916547115 0.0

CELLS 120 480
3 1 34 8
3 34 35 8
3 34 28 35
3 8 35 7
3 1 9 34
3 9 36 34
3 9 10 36
3 34 36 28
3 2 37 13
3 37 38 13
3 37 27 38
3 13 38 12
3 0 4 40
3 4 39 40
3 4 5 39
3 40 39 26
3 24 41 43
3 41 42 43
3 41 25 42
3 43 42 26
3 24 44 41
3 44 45 41
3 44 27 45
3 41 45 25
3 0 40 23
3 40 46 23
3 40 26 46
3 23 46 22
3 2 14 37
3 14 47 37
3 14 15 47
3 37 47 27
3 25 48 42
3 48 49 42
3 48 31 49
3 42 49 26
3 25 45 51
3 45 50 51
3 45 27 50
3 51 50 30
3 5 6 53
3 6 52 53
3 6 7 52
3 53 52 32
3 10 11 55
3 11 54 55
3 11 12 54
3 55 54 33
3 24 43 57
3 43 56 57
3 43 26 56
3 57 56 32
3 24 58 44
3 58 59 44
3 58 33 59
3 44 59 27
3 3 60 18
3 60 61 18
3 60 29 61
3 18 61 17
3 3 19 60
3 19 62 60
3 19 20 62
3 60 62 29
3 5 53 39
3 53 56 39
3 53 32 56
3 39 56 26
3 12 38 54
3 38 59 54
3 38 27 59
3 54 59 33
3 15 16 64
3 16 63 64
3 16 17 63
3 64 63 30
3 20 21 66
3 21 65 66
3 21 22 65
3 66 65 31
3 22 46 65
3 46 49 65
3 46 26 49
3 65 49 31
3 15 64 47
3 64 50 47
3 64 30 50
3 47 50 27
3 24 67 58
3 67 68 58
3 67 28 68
3 58 68 33
3 24 57 67
3 57 69 67
3 57 32 69
3 67 69 28
3 7 35 52
3 35 69 52
3 35 28 69
3 52 69 32
3 10 55 36
3 55 68 36
3 55 33 68
3 36 68 28
3 20 66 62
3 66 70 62
3 66 31 70
3 62 70 29
3 17 61 63
3 61 71 63
3 61 29 71
3 63 71 30
3 25 72 48
3 72 70 48
3 72 29 70
3 48 70 31
3 25 51 72
3 51 71 72
3 51 30 71
3 72 71 29

CELL_TYPES 120
5 5 5 5 5 5 5 5 5 5 5 5 5 5 5 5 5 5 5 5 5 5 5 5 5 5 5 5 5 5 5 5 5 5 5 5 5 5 5 5 5 5 5 5 5 5 5 5 5 5 5 5 5 5 5 5 5 5 5 5 5 5 5 5 5 5 5 5 5 5 5 5 5 5 5 5 5 5 5 5 5 5 5 5 5 5 5 5 5 5 5 5 5 5 5 5 5 5 5 5 5 5 5 5 5 5 5 5 5 5 5 5 5 5 5 5 5 5 5 5 

POINT_DATA 73
