# vtk DataFile Version 1.0
2D Simulation C++
ASCII
DATASET UNSTRUCTURED_GRID
FIELD FieldData 1
NODES 1 2 int
73 120

POINTS 73 double
0.0 0.0 0.0
0.0 1.0 0.0
1.0 1.0 0.0
1.0 0.0 0.0
0.0 0.224003374577 0.0
0.0 0.448006749153 0.0
0.0 0.608711063862 0.0
0.0 0.769415378571 0.0
0.0 0.884707689285 0.0
0.115292325616 1.0 0.0
0.230584651232 1.0 0.0
0.391288936138 1.0 0.0
0.551993250847 1.0 0.0
0.775996625423 1.0 0.0
1.0 0.789787709713 0.0
1.0 0.579575359821 0.0
1.0 0.41641998291 0.0
1.0 0.253264576197 0.0
1.0 0.126632288098 0.0
0.873367726803 0.0 0.0
0.746735394001 0.0 0.0
0.583580076694 0.0 0.0
0.420424699783 0.0 0.0
0.210212349892 0.0 0.0
0.404938648381 0.595086468353 0.0
0.592769332915 0.407253747844 0.0
0.296981663792 0.30220418401 0.0
0.697799857323 0.703046980543 0.0
0.209468819827 0.790554441593 0.0
0.786936813485 0.213082218803 0.0
0.818360326157 0.439289338086 0.0
0.560738393267 0.181646926209 0.0
0.180784316298 0.570791936938 0.0
0.429223637928 0.819246912709 0.0
0.107530546167 0.892480239075 0.0
0.100870781743 0.777790460789 0.0
0.222223120547 0.899145610614 0.0
0.836766599271 0.842723672157 0.0
0.656887093402 0.87070483522 0.0
0.129314615215 0.343117162729 0.0
0.157289023467 0.163234874818 0.0
0.49893839088 0.501083894285 0.0
0.455828205279 0.363105881308 0.0
0.360738915326 0.459459745266 0.0
0.540553932721 0.639291937319 0.0
0.636904427417 0.544203247722 0.0
0.330416434479 0.132264271269 0.0
0.867736327135 0.669600286059 0.0
0.567233157136 0.283914712661 0.0
0.442941796532 0.2293209786 0.0
0.770682770812 0.557087003936 0.0
0.716098818377 0.4327986441 0.0
0.0937225276226 0.653048554015 0.0
0.10368282959 0.507669714204 0.0
0.492337749794 0.896337537145 0.0
0.346962569381 0.906296795758 0.0
0.227176702453 0.451261368635 0.0
0.28242836927 0.572335469908 0.0
0.427683760108 0.717603896061 0.0
0.548749114339 0.772855390138 0.0
0.888975142798 0.111033288675 0.0
0.898082292998 0.232023911028 0.0
0.76799002082 0.101927056649 0.0
0.905783752469 0.362114816007 0.0
0.895551177088 0.508565493825 0.0
0.49145234362 0.10445034284 0.0
0.637900552034 0.0942219919842 0.0
0.308187569088 0.691840083685 0.0
0.322467387903 0.803512082157 0.0
0.196516595929 0.677553980386 0.0
0.670439720841 0.197749154403 0.0
0.802265432969 0.329586204448 0.0
0.688958325202 0.311065756963 0.0

CELLS 120 480
3 1 34 8
3 34 35 8
3 34 28 35
3 8 35 7
3 1 9 34
3 9 36 34
3 9 10 36
3 34 36 28
3 2 37 13
3 37 38 13
3 37 27 38
3 13 38 12
3 0 4 40
3 4 39 40
3 4 5 39
3 40 39 26
3 24 41 43
3 41 42 43
3 41 25 42
3 43 42 26
3 24 44 41
3 44 45 41
3 44 27 45
3 41 45 25
3 0 40 23
3 40 46 23
3 40 26 46
3 23 46 22
3 2 14 37
3 14 47 37
3 14 15 47
3 37 47 27
3 25 48 42
3 48 49 42
3 48 31 49
3 42 49 26
3 25 45 51
3 45 50 51
3 45 27 50
3 51 50 30
3 5 6 53
3 6 52 53
3 6 7 52
3 53 52 32
3 10 11 55
3 11 54 55
3 11 12 54
3 55 54 33
3 24 43 57
3 43 56 57
3 43 26 56
3 57 56 32
3 24 58 44
3 58 59 44
3 58 33 59
3 44 59 27
3 3 60 18
3 60 61 18
3 60 29 61
3 18 61 17
3 3 19 60
3 19 62 60
3 19 20 62
3 60 62 29
3 5 53 39
3 53 56 39
3 53 32 56
3 39 56 26
3 12 38 54
3 38 59 54
3 38 27 59
3 54 59 33
3 15 16 64
3 16 63 64
3 16 17 63
3 64 63 30
3 20 21 66
3 21 65 66
3 21 22 65
3 66 65 31
3 22 46 65
3 46 49 65
3 46 26 49
3 65 49 31
3 15 64 47
3 64 50 47
3 64 30 50
3 47 50 27
3 24 67 58
3 67 68 58
3 67 28 68
3 58 68 33
3 24 57 67
3 57 69 67
3 57 32 69
3 67 69 28
3 7 35 52
3 35 69 52
3 35 28 69
3 52 69 32
3 10 55 36
3 55 68 36
3 55 33 68
3 36 68 28
3 20 66 62
3 66 70 62
3 66 31 70
3 62 70 29
3 17 61 63
3 61 71 63
3 61 29 71
3 63 71 30
3 25 72 48
3 72 70 48
3 72 29 70
3 48 70 31
3 25 51 72
3 51 71 72
3 51 30 71
3 72 71 29

CELL_TYPES 120
5 5 5 5 5 5 5 5 5 5 5 5 5 5 5 5 5 5 5 5 5 5 5 5 5 5 5 5 5 5 5 5 5 5 5 5 5 5 5 5 5 5 5 5 5 5 5 5 5 5 5 5 5 5 5 5 5 5 5 5 5 5 5 5 5 5 5 5 5 5 5 5 5 5 5 5 5 5 5 5 5 5 5 5 5 5 5 5 5 5 5 5 5 5 5 5 5 5 5 5 5 5 5 5 5 5 5 5 5 5 5 5 5 5 5 5 5 5 5 5 

POINT_DATA 73
