# vtk DataFile Version 1.0
2D Simulation C++
ASCII
DATASET UNSTRUCTURED_GRID
FIELD FieldData 1
NODES 1 2 int
66 106

POINTS 66 double
0.0 0.0 0.0
0.0 1.0 0.0
1.0 1.0 0.0
1.0 0.0 0.0
0.0 0.224003374577 0.0
0.0 0.448006749153 0.0
0.0 0.608711063862 0.0
0.0 0.769415378571 0.0
0.0 0.884707689285 0.0
0.115292325616 1.0 0.0
0.230584651232 1.0 0.0
0.391288936138 1.0 0.0
0.551993250847 1.0 0.0
0.775996625423 1.0 0.0
1.0 0.789787709713 0.0
1.0 0.579575359821 0.0
1.0 0.41641998291 0.0
1.0 0.253264576197 0.0
1.0 0.126632288098 0.0
0.873367726803 0.0 0.0
0.746735394001 0.0 0.0
0.583580076694 0.0 0.0
0.420424699783 0.0 0.0
0.210212349892 0.0 0.0
0.531117433323 0.486247498298 0.0
0.317274716759 0.68638266218 0.0
0.69815173299 0.282008382701 0.0
0.609164545919 0.742041475901 0.0
0.26391531914 0.395086763505 0.0
0.462639718409 0.247277208072 0.0
0.758868344303 0.564264551399 0.0
0.20314619579 0.798238972481 0.0
0.799226271823 0.1942716395 0.0
0.794218321448 0.772893042774 0.0
0.231954763762 0.20784964231 0.0
0.851134996256 0.333132044638 0.0
0.670551754726 0.128533509354 0.0
0.331313591952 0.860390410349 0.0
0.141268156128 0.670117370793 0.0
0.483400688756 0.631774863626 0.0
0.567499083577 0.34845738375 0.0
0.422767491779 0.383206218894 0.0
0.630558048393 0.587354299701 0.0
0.679268990236 0.88161774379 0.0
0.120884606247 0.322076234182 0.0
0.50293174727 0.87435475205 0.0
0.127874198709 0.498633016712 0.0
0.357278264012 0.133859684976 0.0
0.867381697069 0.650099203713 0.0
0.511553933316 0.119582242185 0.0
0.863885589797 0.493726761895 0.0
0.376120688321 0.524335365884 0.0
0.700611192389 0.439596628073 0.0
0.101379430656 0.899043074313 0.0
0.447702485176 0.759316817182 0.0
0.583199014147 0.224622802578 0.0
0.89746189644 0.101042654246 0.0
0.793867008021 0.0864643310857 0.0
0.907696538871 0.206697364932 0.0
0.201405220509 0.909263017194 0.0
0.0914021348989 0.799259323876 0.0
0.244732290547 0.555724756182 0.0
0.856701192093 0.890282065708 0.0
0.111188520539 0.144138074002 0.0
0.729748707098 0.667490583893 0.0
0.344330732061 0.275039764121 0.0

CELLS 106 424
3 25 31 37
3 25 38 31
3 24 41 51
3 26 52 35
3 24 42 52
3 35 52 50
3 26 32 36
3 26 35 32
3 24 51 39
3 27 43 33
3 28 34 44
3 27 33 64
3 28 65 34
3 17 35 16
3 20 21 36
3 24 52 40
3 28 51 41
3 10 11 37
3 7 38 6
3 30 52 42
3 14 48 33
3 23 34 47
3 12 13 43
3 5 44 4
3 15 50 48
3 22 47 49
3 22 23 47
3 15 48 14
3 27 64 42
3 28 41 65
3 24 39 42
3 33 43 62
3 34 63 44
3 1 53 8
3 1 9 53
3 27 42 39
3 5 46 44
3 12 43 45
3 24 40 41
3 25 37 54
3 29 41 40
3 10 37 59
3 7 60 38
3 20 36 57
3 17 58 35
3 25 61 38
3 32 57 36
3 32 35 58
3 28 44 46
3 27 45 43
3 15 16 50
3 22 49 21
3 31 59 37
3 31 38 60
3 30 50 52
3 29 49 47
3 30 48 50
3 13 62 43
3 4 44 63
3 14 33 62
3 23 63 34
3 21 49 36
3 16 35 50
3 5 6 46
3 12 45 11
3 3 56 18
3 3 19 56
3 28 61 51
3 28 46 61
3 25 39 51
3 11 45 37
3 6 38 46
3 26 40 52
3 26 36 55
3 25 54 39
3 37 45 54
3 26 55 40
3 7 8 60
3 10 59 9
3 27 39 54
3 2 62 13
3 0 4 63
3 29 40 55
3 2 14 62
3 0 63 23
3 20 57 19
3 17 18 58
3 36 49 55
3 27 54 45
3 38 61 46
3 29 55 49
3 8 53 60
3 9 59 53
3 29 47 65
3 30 64 48
3 29 65 41
3 30 42 64
3 25 51 61
3 34 65 47
3 33 48 64
3 31 53 59
3 31 60 53
3 19 57 56
3 18 56 58
3 32 56 57
3 32 58 56

CELL_TYPES 106
5 5 5 5 5 5 5 5 5 5 5 5 5 5 5 5 5 5 5 5 5 5 5 5 5 5 5 5 5 5 5 5 5 5 5 5 5 5 5 5 5 5 5 5 5 5 5 5 5 5 5 5 5 5 5 5 5 5 5 5 5 5 5 5 5 5 5 5 5 5 5 5 5 5 5 5 5 5 5 5 5 5 5 5 5 5 5 5 5 5 5 5 5 5 5 5 5 5 5 5 5 5 5 5 5 5 

POINT_DATA 66
