# vtk DataFile Version 1.0
2D Simulation C++
ASCII
DATASET UNSTRUCTURED_GRID
FIELD FieldData 1
NODES 1 2 int
66 106

POINTS 66 double
0.0 0.0 0.0
0.0 1.0 0.0
1.0 1.0 0.0
1.0 0.0 0.0
0.0 0.224003374577 0.0
0.0 0.448006749153 0.0
0.0 0.608711063862 0.0
0.0 0.769415378571 0.0
0.0 0.884707689285 0.0
0.115292325616 1.0 0.0
0.230584651232 1.0 0.0
0.391288936138 1.0 0.0
0.551993250847 1.0 0.0
0.775996625423 1.0 0.0
1.0 0.789787709713 0.0
1.0 0.579575359821 0.0
1.0 0.41641998291 0.0
1.0 0.253264576197 0.0
1.0 0.126632288098 0.0
0.873367726803 0.0 0.0
0.746735394001 0.0 0.0
0.583580076694 0.0 0.0
0.420424699783 0.0 0.0
0.210212349892 0.0 0.0
0.522029896873 0.491427177591 0.0
0.30749842442 0.694691788482 0.0
0.696591866505 0.282488236903 0.0
0.600728438388 0.743409652607 0.0
0.258010456883 0.403744753347 0.0
0.459770826285 0.252606390591 0.0
0.752238205049 0.563375284231 0.0
0.196515381901 0.804652775098 0.0
0.799823937887 0.193371150549 0.0
0.7895109099 0.771926740933 0.0
0.23005450453 0.212918131604 0.0
0.849831373253 0.332423752809 0.0
0.670922504836 0.128879246708 0.0
0.325458482694 0.864626076974 0.0
0.135702042982 0.676485541219 0.0
0.472292505774 0.637554142602 0.0
0.562682455306 0.352303361778 0.0
0.41595102005 0.391029277037 0.0
0.62109079198 0.588808187633 0.0
0.675608293718 0.88134562019 0.0
0.118975539781 0.326288320411 0.0
0.497735563904 0.87589664694 0.0
0.123998487358 0.504627061403 0.0
0.356151026844 0.13774489104 0.0
0.863397414792 0.648945706878 0.0
0.511218322943 0.121913774426 0.0
0.860861771206 0.492699039054 0.0
0.366031624379 0.53355030614 0.0
0.69505160561 0.440232603963 0.0
0.0983117766721 0.902198995516 0.0
0.438217518594 0.764151545699 0.0
0.58199643258 0.227138408361 0.0
0.898210258374 0.100314517748 0.0
0.79469536727 0.0859125559231 0.0
0.90809101441 0.205859295851 0.0
0.197512117575 0.912632283385 0.0
0.087716930911 0.80355653848 0.0
0.236387112566 0.565406668235 0.0
0.854800329799 0.889503793108 0.0
0.110928616891 0.146260979575 0.0
0.72213594975 0.666760131444 0.0
0.340439861277 0.282458098896 0.0

CELLS 106 424
3 25 31 37
3 25 38 31
3 24 41 51
3 26 52 35
3 24 42 52
3 35 52 50
3 26 32 36
3 26 35 32
3 24 51 39
3 27 43 33
3 28 34 44
3 27 33 64
3 28 65 34
3 17 35 16
3 20 21 36
3 24 52 40
3 28 51 41
3 10 11 37
3 7 38 6
3 30 52 42
3 14 48 33
3 23 34 47
3 12 13 43
3 5 44 4
3 15 50 48
3 22 47 49
3 22 23 47
3 15 48 14
3 27 64 42
3 28 41 65
3 24 39 42
3 33 43 62
3 34 63 44
3 1 53 8
3 1 9 53
3 27 42 39
3 5 46 44
3 12 43 45
3 24 40 41
3 25 37 54
3 29 41 40
3 10 37 59
3 7 60 38
3 20 36 57
3 17 58 35
3 25 61 38
3 32 57 36
3 32 35 58
3 28 44 46
3 27 45 43
3 15 16 50
3 22 49 21
3 31 59 37
3 31 38 60
3 30 50 52
3 29 49 47
3 30 48 50
3 13 62 43
3 4 44 63
3 14 33 62
3 23 63 34
3 21 49 36
3 16 35 50
3 5 6 46
3 12 45 11
3 3 56 18
3 3 19 56
3 28 61 51
3 28 46 61
3 25 39 51
3 11 45 37
3 6 38 46
3 26 40 52
3 26 36 55
3 25 54 39
3 37 45 54
3 26 55 40
3 7 8 60
3 10 59 9
3 27 39 54
3 2 62 13
3 0 4 63
3 29 40 55
3 2 14 62
3 0 63 23
3 20 57 19
3 17 18 58
3 36 49 55
3 27 54 45
3 38 61 46
3 29 55 49
3 8 53 60
3 9 59 53
3 29 47 65
3 30 64 48
3 29 65 41
3 30 42 64
3 25 51 61
3 34 65 47
3 33 48 64
3 31 53 59
3 31 60 53
3 19 57 56
3 18 56 58
3 32 56 57
3 32 58 56

CELL_TYPES 106
5 5 5 5 5 5 5 5 5 5 5 5 5 5 5 5 5 5 5 5 5 5 5 5 5 5 5 5 5 5 5 5 5 5 5 5 5 5 5 5 5 5 5 5 5 5 5 5 5 5 5 5 5 5 5 5 5 5 5 5 5 5 5 5 5 5 5 5 5 5 5 5 5 5 5 5 5 5 5 5 5 5 5 5 5 5 5 5 5 5 5 5 5 5 5 5 5 5 5 5 5 5 5 5 5 5 

POINT_DATA 66
