# vtk DataFile Version 1.0
2D Simulation C++
ASCII
DATASET UNSTRUCTURED_GRID
FIELD FieldData 1
NODES 1 2 int
66 106

POINTS 66 double
0.0 0.0 0.0
0.0 1.0 0.0
1.0 1.0 0.0
1.0 0.0 0.0
0.0 0.224003374577 0.0
0.0 0.448006749153 0.0
0.0 0.608711063862 0.0
0.0 0.769415378571 0.0
0.0 0.884707689285 0.0
0.115292325616 1.0 0.0
0.230584651232 1.0 0.0
0.391288936138 1.0 0.0
0.551993250847 1.0 0.0
0.775996625423 1.0 0.0
1.0 0.789787709713 0.0
1.0 0.579575359821 0.0
1.0 0.41641998291 0.0
1.0 0.253264576197 0.0
1.0 0.126632288098 0.0
0.873367726803 0.0 0.0
0.746735394001 0.0 0.0
0.583580076694 0.0 0.0
0.420424699783 0.0 0.0
0.210212349892 0.0 0.0
0.529865533801 0.487046372699 0.0
0.316109680849 0.687302204023 0.0
0.697623839663 0.282319585536 0.0
0.608139071482 0.742404536719 0.0
0.263052845704 0.395987674345 0.0
0.461973896489 0.247998714142 0.0
0.757933065256 0.564472838771 0.0
0.202375423375 0.798913067163 0.0
0.79901442553 0.194372668373 0.0
0.793638897626 0.772949383266 0.0
0.231553906523 0.20837200959 0.0
0.850783288412 0.333255719444 0.0
0.670338973183 0.128713590667 0.0
0.330629879796 0.860881732829 0.0
0.140606671475 0.670745647043 0.0
0.482034150185 0.632587472325 0.0
0.566611450053 0.349125480301 0.0
0.421720050255 0.384180629856 0.0
0.629313899916 0.587805851306 0.0
0.678833255434 0.881698136334 0.0
0.120541548936 0.322479546437 0.0
0.502319239866 0.874624482566 0.0
0.127340450612 0.499208059375 0.0
0.356950796995 0.13432147186 0.0
0.866841522143 0.650150779464 0.0
0.511277123495 0.119929606899 0.0
0.863396498926 0.493821494867 0.0
0.374823308211 0.525397088246 0.0
0.699726785925 0.439965572686 0.0
0.101027842021 0.899372746731 0.0
0.446581773781 0.759972052436 0.0
0.582687093297 0.225098029552 0.0
0.897406977332 0.101065496247 0.0
0.793781731397 0.0865122851195 0.0
0.907581169498 0.206741776202 0.0
0.200955479757 0.909627129092 0.0
0.0909781932296 0.799688319748 0.0
0.243684771348 0.556705666656 0.0
0.856477727926 0.890255712626 0.0
0.11107365707 0.144333924651 0.0
0.728767052668 0.667683799713 0.0
0.343608704042 0.275882830253 0.0

CELLS 106 424
3 25 31 37
3 25 38 31
3 24 41 51
3 26 52 35
3 24 42 52
3 35 52 50
3 26 32 36
3 26 35 32
3 24 51 39
3 27 43 33
3 28 34 44
3 27 33 64
3 28 65 34
3 17 35 16
3 20 21 36
3 24 52 40
3 28 51 41
3 10 11 37
3 7 38 6
3 30 52 42
3 14 48 33
3 23 34 47
3 12 13 43
3 5 44 4
3 15 50 48
3 22 47 49
3 22 23 47
3 15 48 14
3 27 64 42
3 28 41 65
3 24 39 42
3 33 43 62
3 34 63 44
3 1 53 8
3 1 9 53
3 27 42 39
3 5 46 44
3 12 43 45
3 24 40 41
3 25 37 54
3 29 41 40
3 10 37 59
3 7 60 38
3 20 36 57
3 17 58 35
3 25 61 38
3 32 57 36
3 32 35 58
3 28 44 46
3 27 45 43
3 15 16 50
3 22 49 21
3 31 59 37
3 31 38 60
3 30 50 52
3 29 49 47
3 30 48 50
3 13 62 43
3 4 44 63
3 14 33 62
3 23 63 34
3 21 49 36
3 16 35 50
3 5 6 46
3 12 45 11
3 3 56 18
3 3 19 56
3 28 61 51
3 28 46 61
3 25 39 51
3 11 45 37
3 6 38 46
3 26 40 52
3 26 36 55
3 25 54 39
3 37 45 54
3 26 55 40
3 7 8 60
3 10 59 9
3 27 39 54
3 2 62 13
3 0 4 63
3 29 40 55
3 2 14 62
3 0 63 23
3 20 57 19
3 17 18 58
3 36 49 55
3 27 54 45
3 38 61 46
3 29 55 49
3 8 53 60
3 9 59 53
3 29 47 65
3 30 64 48
3 29 65 41
3 30 42 64
3 25 51 61
3 34 65 47
3 33 48 64
3 31 53 59
3 31 60 53
3 19 57 56
3 18 56 58
3 32 56 57
3 32 58 56

CELL_TYPES 106
5 5 5 5 5 5 5 5 5 5 5 5 5 5 5 5 5 5 5 5 5 5 5 5 5 5 5 5 5 5 5 5 5 5 5 5 5 5 5 5 5 5 5 5 5 5 5 5 5 5 5 5 5 5 5 5 5 5 5 5 5 5 5 5 5 5 5 5 5 5 5 5 5 5 5 5 5 5 5 5 5 5 5 5 5 5 5 5 5 5 5 5 5 5 5 5 5 5 5 5 5 5 5 5 5 5 

POINT_DATA 66
