# vtk DataFile Version 1.0
2D Simulation C++
ASCII
DATASET UNSTRUCTURED_GRID
FIELD FieldData 1
NODES 1 2 int
66 106

POINTS 66 double
0.0 0.0 0.0
0.0 1.0 0.0
1.0 1.0 0.0
1.0 0.0 0.0
0.0 0.224003374577 0.0
0.0 0.448006749153 0.0
0.0 0.608711063862 0.0
0.0 0.769415378571 0.0
0.0 0.884707689285 0.0
0.115292325616 1.0 0.0
0.230584651232 1.0 0.0
0.391288936138 1.0 0.0
0.551993250847 1.0 0.0
0.775996625423 1.0 0.0
1.0 0.789787709713 0.0
1.0 0.579575359821 0.0
1.0 0.41641998291 0.0
1.0 0.253264576197 0.0
1.0 0.126632288098 0.0
0.873367726803 0.0 0.0
0.746735394001 0.0 0.0
0.583580076694 0.0 0.0
0.420424699783 0.0 0.0
0.210212349892 0.0 0.0
0.502317535402 0.497907348243 0.0
0.283839005172 0.71350628572 0.0
0.705126713145 0.278753184437 0.0
0.579997560477 0.739611468273 0.0
0.251415633845 0.437485414358 0.0
0.465026923496 0.256782643834 0.0
0.74899746788 0.550915267025 0.0
0.182013211386 0.817938889674 0.0
0.812519627837 0.184322536571 0.0
0.774718781341 0.768597341335 0.0
0.231238553135 0.227379238396 0.0
0.85594933748 0.317861947279 0.0
0.683280569396 0.129414485155 0.0
0.311058745473 0.871879974789 0.0
0.126632237783 0.697521369919 0.0
0.440489202518 0.641574545984 0.0
0.560726480021 0.351606339183 0.0
0.399630203187 0.396082377367 0.0
0.610481287725 0.597225478151 0.0
0.66957114217 0.877075098524 0.0
0.123227533619 0.338570734539 0.0
0.485269984942 0.874625078728 0.0
0.124137458663 0.531064833024 0.0
0.365471150203 0.147434198109 0.0
0.853977715768 0.636809443524 0.0
0.519853378663 0.127979330035 0.0
0.861262283356 0.476208918359 0.0
0.335348751034 0.560295621807 0.0
0.689478313636 0.429374178694 0.0
0.0960195828664 0.904061948166 0.0
0.41796258018 0.767891688055 0.0
0.592051199435 0.232726668272 0.0
0.903329024384 0.0964441609625 0.0
0.803538349237 0.0822562536845 0.0
0.914580948382 0.196327918525 0.0
0.188012017388 0.918351526491 0.0
0.0812724775326 0.813879898608 0.0
0.2198444706 0.610717407624 0.0
0.868231200295 0.883468770785 0.0
0.116595250208 0.132566717047 0.0
0.712141271 0.659781201494 0.0
0.341442530751 0.294709993201 0.0

CELLS 106 424
3 25 31 37
3 25 38 31
3 24 41 51
3 26 52 35
3 24 42 52
3 35 52 50
3 26 32 36
3 26 35 32
3 24 51 39
3 27 43 33
3 28 34 44
3 27 33 64
3 28 65 34
3 17 35 16
3 20 21 36
3 24 52 40
3 28 51 41
3 10 11 37
3 7 38 6
3 30 52 42
3 14 48 33
3 23 34 47
3 12 13 43
3 5 44 4
3 15 50 48
3 22 47 49
3 22 23 47
3 15 48 14
3 27 64 42
3 28 41 65
3 24 39 42
3 33 43 62
3 34 63 44
3 1 53 8
3 1 9 53
3 27 42 39
3 5 46 44
3 12 43 45
3 24 40 41
3 25 37 54
3 29 41 40
3 10 37 59
3 7 60 38
3 20 36 57
3 17 58 35
3 25 61 38
3 32 57 36
3 32 35 58
3 28 44 46
3 27 45 43
3 15 16 50
3 22 49 21
3 31 59 37
3 31 38 60
3 30 50 52
3 29 49 47
3 30 48 50
3 13 62 43
3 4 44 63
3 14 33 62
3 23 63 34
3 21 49 36
3 16 35 50
3 5 6 46
3 12 45 11
3 3 56 18
3 3 19 56
3 28 61 51
3 28 46 61
3 25 39 51
3 11 45 37
3 6 38 46
3 26 40 52
3 26 36 55
3 25 54 39
3 37 45 54
3 26 55 40
3 7 8 60
3 10 59 9
3 27 39 54
3 2 62 13
3 0 4 63
3 29 40 55
3 2 14 62
3 0 63 23
3 20 57 19
3 17 18 58
3 36 49 55
3 27 54 45
3 38 61 46
3 29 55 49
3 8 53 60
3 9 59 53
3 29 47 65
3 30 64 48
3 29 65 41
3 30 42 64
3 25 51 61
3 34 65 47
3 33 48 64
3 31 53 59
3 31 60 53
3 19 57 56
3 18 56 58
3 32 56 57
3 32 58 56

CELL_TYPES 106
5 5 5 5 5 5 5 5 5 5 5 5 5 5 5 5 5 5 5 5 5 5 5 5 5 5 5 5 5 5 5 5 5 5 5 5 5 5 5 5 5 5 5 5 5 5 5 5 5 5 5 5 5 5 5 5 5 5 5 5 5 5 5 5 5 5 5 5 5 5 5 5 5 5 5 5 5 5 5 5 5 5 5 5 5 5 5 5 5 5 5 5 5 5 5 5 5 5 5 5 5 5 5 5 5 5 

POINT_DATA 66
