# vtk DataFile Version 1.0
2D Simulation C++
ASCII
DATASET UNSTRUCTURED_GRID
FIELD FieldData 1
NODES 1 2 int
73 120

POINTS 73 double
0.0 0.0 0.0
0.0 1.0 0.0
1.0 1.0 0.0
1.0 0.0 0.0
0.0 0.224003374577 0.0
0.0 0.448006749153 0.0
0.0 0.608711063862 0.0
0.0 0.769415378571 0.0
0.0 0.884707689285 0.0
0.115292325616 1.0 0.0
0.230584651232 1.0 0.0
0.391288936138 1.0 0.0
0.551993250847 1.0 0.0
0.775996625423 1.0 0.0
1.0 0.789787709713 0.0
1.0 0.579575359821 0.0
1.0 0.41641998291 0.0
1.0 0.253264576197 0.0
1.0 0.126632288098 0.0
0.873367726803 0.0 0.0
0.746735394001 0.0 0.0
0.583580076694 0.0 0.0
0.420424699783 0.0 0.0
0.210212349892 0.0 0.0
0.40462887131 0.595392360621 0.0
0.591977702499 0.40804223996 0.0
0.296348735436 0.302190297042 0.0
0.697816885154 0.70367112723 0.0
0.209424377236 0.790591593294 0.0
0.786242484758 0.213771204047 0.0
0.817994185243 0.440146102547 0.0
0.559873161957 0.182014158998 0.0
0.180415069703 0.570622956627 0.0
0.429389081499 0.819606460129 0.0
0.107524036299 0.892482854922 0.0
0.100788822842 0.777738369268 0.0
0.222270442926 0.899222186822 0.0
0.836849579529 0.843001605129 0.0
0.65700411739 0.871047437532 0.0
0.128965301227 0.343000324548 0.0
0.15700686744 0.163153172657 0.0
0.498385085649 0.50163493813 0.0
0.454991089906 0.363483965106 0.0
0.360130431048 0.459602621232 0.0
0.540412116444 0.639892939743 0.0
0.636528788787 0.54503280784 0.0
0.329995690007 0.132242267226 0.0
0.867760910917 0.670015577333 0.0
0.566251825972 0.284501572411 0.0
0.442119574287 0.229515884133 0.0
0.770491520605 0.557900649879 0.0
0.715512002777 0.43377160513 0.0
0.0935446515166 0.652937692261 0.0
0.103403174544 0.507531432402 0.0
0.492474497722 0.896610175215 0.0
0.34706982753 0.906468414211 0.0
0.2266680608 0.451133628421 0.0
0.282028492834 0.572321017269 0.0
0.427695560485 0.717995417816 0.0
0.548876642326 0.773354022213 0.0
0.888646457967 0.11135936334 0.0
0.897710348865 0.232493141106 0.0
0.767516402609 0.102296551146 0.0
0.905517858589 0.362605993063 0.0
0.895448521927 0.509047069032 0.0
0.490964911746 0.104554928492 0.0
0.637404461338 0.094487463971 0.0
0.30804873292 0.691972277973 0.0
0.322536417064 0.803724283146 0.0
0.196295972822 0.677478978987 0.0
0.669574092093 0.198347555999 0.0
0.801664464333 0.330444250814 0.0
0.688088612017 0.311930180231 0.0

CELLS 120 480
3 1 34 8
3 34 35 8
3 34 28 35
3 8 35 7
3 1 9 34
3 9 36 34
3 9 10 36
3 34 36 28
3 2 37 13
3 37 38 13
3 37 27 38
3 13 38 12
3 0 4 40
3 4 39 40
3 4 5 39
3 40 39 26
3 24 41 43
3 41 42 43
3 41 25 42
3 43 42 26
3 24 44 41
3 44 45 41
3 44 27 45
3 41 45 25
3 0 40 23
3 40 46 23
3 40 26 46
3 23 46 22
3 2 14 37
3 14 47 37
3 14 15 47
3 37 47 27
3 25 48 42
3 48 49 42
3 48 31 49
3 42 49 26
3 25 45 51
3 45 50 51
3 45 27 50
3 51 50 30
3 5 6 53
3 6 52 53
3 6 7 52
3 53 52 32
3 10 11 55
3 11 54 55
3 11 12 54
3 55 54 33
3 24 43 57
3 43 56 57
3 43 26 56
3 57 56 32
3 24 58 44
3 58 59 44
3 58 33 59
3 44 59 27
3 3 60 18
3 60 61 18
3 60 29 61
3 18 61 17
3 3 19 60
3 19 62 60
3 19 20 62
3 60 62 29
3 5 53 39
3 53 56 39
3 53 32 56
3 39 56 26
3 12 38 54
3 38 59 54
3 38 27 59
3 54 59 33
3 15 16 64
3 16 63 64
3 16 17 63
3 64 63 30
3 20 21 66
3 21 65 66
3 21 22 65
3 66 65 31
3 22 46 65
3 46 49 65
3 46 26 49
3 65 49 31
3 15 64 47
3 64 50 47
3 64 30 50
3 47 50 27
3 24 67 58
3 67 68 58
3 67 28 68
3 58 68 33
3 24 57 67
3 57 69 67
3 57 32 69
3 67 69 28
3 7 35 52
3 35 69 52
3 35 28 69
3 52 69 32
3 10 55 36
3 55 68 36
3 55 33 68
3 36 68 28
3 20 66 62
3 66 70 62
3 66 31 70
3 62 70 29
3 17 61 63
3 61 71 63
3 61 29 71
3 63 71 30
3 25 72 48
3 72 70 48
3 72 29 70
3 48 70 31
3 25 51 72
3 51 71 72
3 51 30 71
3 72 71 29

CELL_TYPES 120
5 5 5 5 5 5 5 5 5 5 5 5 5 5 5 5 5 5 5 5 5 5 5 5 5 5 5 5 5 5 5 5 5 5 5 5 5 5 5 5 5 5 5 5 5 5 5 5 5 5 5 5 5 5 5 5 5 5 5 5 5 5 5 5 5 5 5 5 5 5 5 5 5 5 5 5 5 5 5 5 5 5 5 5 5 5 5 5 5 5 5 5 5 5 5 5 5 5 5 5 5 5 5 5 5 5 5 5 5 5 5 5 5 5 5 5 5 5 5 5 

POINT_DATA 73
