# vtk DataFile Version 1.0
2D Simulation C++
ASCII
DATASET UNSTRUCTURED_GRID
FIELD FieldData 1
NODES 1 2 int
66 106

POINTS 66 double
0.0 0.0 0.0
0.0 1.0 0.0
1.0 1.0 0.0
1.0 0.0 0.0
0.0 0.224003374577 0.0
0.0 0.448006749153 0.0
0.0 0.608711063862 0.0
0.0 0.769415378571 0.0
0.0 0.884707689285 0.0
0.115292325616 1.0 0.0
0.230584651232 1.0 0.0
0.391288936138 1.0 0.0
0.551993250847 1.0 0.0
0.775996625423 1.0 0.0
1.0 0.789787709713 0.0
1.0 0.579575359821 0.0
1.0 0.41641998291 0.0
1.0 0.253264576197 0.0
1.0 0.126632288098 0.0
0.873367726803 0.0 0.0
0.746735394001 0.0 0.0
0.583580076694 0.0 0.0
0.420424699783 0.0 0.0
0.210212349892 0.0 0.0
0.526836156019 0.488885091138 0.0
0.313019590255 0.689853504072 0.0
0.696753947429 0.282736196711 0.0
0.605442395659 0.743048483733 0.0
0.261016601641 0.398568842575 0.0
0.460718001947 0.249791216348 0.0
0.755657363993 0.564527024274 0.0
0.200284982736 0.800859960008 0.0
0.798883485897 0.194311164425 0.0
0.792113672575 0.772815217404 0.0
0.230750351702 0.209889475425 0.0
0.850150175227 0.333267289122 0.0
0.670163740725 0.128960159631 0.0
0.328786325909 0.862222736739 0.0
0.138843217887 0.672603124239 0.0
0.478488120226 0.634555809569 0.0
0.5647665872 0.350570805281 0.0
0.41933757147 0.386713315726 0.0
0.626188775515 0.588555002402 0.0
0.677662115118 0.88172912924 0.0
0.119793740089 0.323699000128 0.0
0.50067792629 0.875214113635 0.0
0.126023160666 0.500927217259 0.0
0.356373695834 0.135561827363 0.0
0.865492901108 0.649990454753 0.0
0.510898127674 0.120740794376 0.0
0.862288957017 0.493745287137 0.0
0.3715556738 0.528267033469 0.0
0.697730993867 0.440483028205 0.0
0.100061927973 0.900338004248 0.0
0.443592589277 0.761604132735 0.0
0.581899137488 0.226072623182 0.0
0.89748126731 0.100956563873 0.0
0.793835128874 0.0864547926964 0.0
0.907520817266 0.206642687306 0.0
0.199729832088 0.910672746948 0.0
0.0898198906587 0.800963356136 0.0
0.240990169982 0.559547443935 0.0
0.85586337227 0.890074970699 0.0
0.11088704861 0.144949127891 0.0
0.726255701409 0.667736038067 0.0
0.342102478852 0.278198388179 0.0

CELLS 106 424
3 25 31 37
3 25 38 31
3 24 41 51
3 26 52 35
3 24 42 52
3 35 52 50
3 26 32 36
3 26 35 32
3 24 51 39
3 27 43 33
3 28 34 44
3 27 33 64
3 28 65 34
3 17 35 16
3 20 21 36
3 24 52 40
3 28 51 41
3 10 11 37
3 7 38 6
3 30 52 42
3 14 48 33
3 23 34 47
3 12 13 43
3 5 44 4
3 15 50 48
3 22 47 49
3 22 23 47
3 15 48 14
3 27 64 42
3 28 41 65
3 24 39 42
3 33 43 62
3 34 63 44
3 1 53 8
3 1 9 53
3 27 42 39
3 5 46 44
3 12 43 45
3 24 40 41
3 25 37 54
3 29 41 40
3 10 37 59
3 7 60 38
3 20 36 57
3 17 58 35
3 25 61 38
3 32 57 36
3 32 35 58
3 28 44 46
3 27 45 43
3 15 16 50
3 22 49 21
3 31 59 37
3 31 38 60
3 30 50 52
3 29 49 47
3 30 48 50
3 13 62 43
3 4 44 63
3 14 33 62
3 23 63 34
3 21 49 36
3 16 35 50
3 5 6 46
3 12 45 11
3 3 56 18
3 3 19 56
3 28 61 51
3 28 46 61
3 25 39 51
3 11 45 37
3 6 38 46
3 26 40 52
3 26 36 55
3 25 54 39
3 37 45 54
3 26 55 40
3 7 8 60
3 10 59 9
3 27 39 54
3 2 62 13
3 0 4 63
3 29 40 55
3 2 14 62
3 0 63 23
3 20 57 19
3 17 18 58
3 36 49 55
3 27 54 45
3 38 61 46
3 29 55 49
3 8 53 60
3 9 59 53
3 29 47 65
3 30 64 48
3 29 65 41
3 30 42 64
3 25 51 61
3 34 65 47
3 33 48 64
3 31 53 59
3 31 60 53
3 19 57 56
3 18 56 58
3 32 56 57
3 32 58 56

CELL_TYPES 106
5 5 5 5 5 5 5 5 5 5 5 5 5 5 5 5 5 5 5 5 5 5 5 5 5 5 5 5 5 5 5 5 5 5 5 5 5 5 5 5 5 5 5 5 5 5 5 5 5 5 5 5 5 5 5 5 5 5 5 5 5 5 5 5 5 5 5 5 5 5 5 5 5 5 5 5 5 5 5 5 5 5 5 5 5 5 5 5 5 5 5 5 5 5 5 5 5 5 5 5 5 5 5 5 5 5 

POINT_DATA 66
