# vtk DataFile Version 1.0
2D Simulation C++
ASCII
DATASET UNSTRUCTURED_GRID
FIELD FieldData 1
NODES 1 2 int
73 120

POINTS 73 double
0.0 0.0 0.0
0.0 1.0 0.0
1.0 1.0 0.0
1.0 0.0 0.0
0.0 0.224003374577 0.0
0.0 0.448006749153 0.0
0.0 0.608711063862 0.0
0.0 0.769415378571 0.0
0.0 0.884707689285 0.0
0.115292325616 1.0 0.0
0.230584651232 1.0 0.0
0.391288936138 1.0 0.0
0.551993250847 1.0 0.0
0.775996625423 1.0 0.0
1.0 0.789787709713 0.0
1.0 0.579575359821 0.0
1.0 0.41641998291 0.0
1.0 0.253264576197 0.0
1.0 0.126632288098 0.0
0.873367726803 0.0 0.0
0.746735394001 0.0 0.0
0.583580076694 0.0 0.0
0.420424699783 0.0 0.0
0.210212349892 0.0 0.0
0.405386057972 0.594633257791 0.0
0.595199911126 0.404814165517 0.0
0.29939379637 0.303268711912 0.0
0.696704246692 0.700686944217 0.0
0.209734538538 0.790324993973 0.0
0.789623630261 0.210421280655 0.0
0.819300613697 0.435611425199 0.0
0.564445360473 0.180705696384 0.0
0.182029968962 0.572275595312 0.0
0.427761508908 0.81803506756 0.0
0.107695141469 0.892342482345 0.0
0.101339271491 0.77808641372 0.0
0.221967881967 0.898695201649 0.0
0.835942829361 0.841569367521 0.0
0.655735044632 0.869416924882 0.0
0.130655959339 0.344277168177 0.0
0.158472044436 0.164056202292 0.0
0.500192389952 0.499810678268 0.0
0.458737395283 0.362657208873 0.0
0.362586056904 0.460002918138 0.0
0.539976647769 0.637474025755 0.0
0.637312156578 0.541313627013 0.0
0.332235747499 0.132920018254 0.0
0.8670612597 0.667808229104 0.0
0.571014384441 0.282313223852 0.0
0.44633352793 0.229364185667 0.0
0.770607379018 0.553728726586 0.0
0.71769147107 0.429041753022 0.0
0.0943857375721 0.653911822229 0.0
0.104659357862 0.508882264251 0.0
0.491142555943 0.895401074682 0.0
0.346132914765 0.905647516772 0.0
0.228912375722 0.452840699274 0.0
0.283623400301 0.573204117249 0.0
0.426814469648 0.716433800175 0.0
0.547163625232 0.771183137169 0.0
0.890293479771 0.109725970006 0.0
0.899472649092 0.230046254872 0.0
0.769983164104 0.100553199998 0.0
0.906655886044 0.359940672293 0.0
0.895577942182 0.506417361333 0.0
0.493623737103 0.10441322393 0.0
0.640090889285 0.0933598404461 0.0
0.308428526791 0.691615812505 0.0
0.321844957069 0.802693202602 0.0
0.197354775456 0.678212568041 0.0
0.673974108327 0.195716124635 0.0
0.804318466389 0.326079789391 0.0
0.692076931571 0.307967235934 0.0

CELLS 120 480
3 1 34 8
3 34 35 8
3 34 28 35
3 8 35 7
3 1 9 34
3 9 36 34
3 9 10 36
3 34 36 28
3 2 37 13
3 37 38 13
3 37 27 38
3 13 38 12
3 0 4 40
3 4 39 40
3 4 5 39
3 40 39 26
3 24 41 43
3 41 42 43
3 41 25 42
3 43 42 26
3 24 44 41
3 44 45 41
3 44 27 45
3 41 45 25
3 0 40 23
3 40 46 23
3 40 26 46
3 23 46 22
3 2 14 37
3 14 47 37
3 14 15 47
3 37 47 27
3 25 48 42
3 48 49 42
3 48 31 49
3 42 49 26
3 25 45 51
3 45 50 51
3 45 27 50
3 51 50 30
3 5 6 53
3 6 52 53
3 6 7 52
3 53 52 32
3 10 11 55
3 11 54 55
3 11 12 54
3 55 54 33
3 24 43 57
3 43 56 57
3 43 26 56
3 57 56 32
3 24 58 44
3 58 59 44
3 58 33 59
3 44 59 27
3 3 60 18
3 60 61 18
3 60 29 61
3 18 61 17
3 3 19 60
3 19 62 60
3 19 20 62
3 60 62 29
3 5 53 39
3 53 56 39
3 53 32 56
3 39 56 26
3 12 38 54
3 38 59 54
3 38 27 59
3 54 59 33
3 15 16 64
3 16 63 64
3 16 17 63
3 64 63 30
3 20 21 66
3 21 65 66
3 21 22 65
3 66 65 31
3 22 46 65
3 46 49 65
3 46 26 49
3 65 49 31
3 15 64 47
3 64 50 47
3 64 30 50
3 47 50 27
3 24 67 58
3 67 68 58
3 67 28 68
3 58 68 33
3 24 57 67
3 57 69 67
3 57 32 69
3 67 69 28
3 7 35 52
3 35 69 52
3 35 28 69
3 52 69 32
3 10 55 36
3 55 68 36
3 55 33 68
3 36 68 28
3 20 66 62
3 66 70 62
3 66 31 70
3 62 70 29
3 17 61 63
3 61 71 63
3 61 29 71
3 63 71 30
3 25 72 48
3 72 70 48
3 72 29 70
3 48 70 31
3 25 51 72
3 51 71 72
3 51 30 71
3 72 71 29

CELL_TYPES 120
5 5 5 5 5 5 5 5 5 5 5 5 5 5 5 5 5 5 5 5 5 5 5 5 5 5 5 5 5 5 5 5 5 5 5 5 5 5 5 5 5 5 5 5 5 5 5 5 5 5 5 5 5 5 5 5 5 5 5 5 5 5 5 5 5 5 5 5 5 5 5 5 5 5 5 5 5 5 5 5 5 5 5 5 5 5 5 5 5 5 5 5 5 5 5 5 5 5 5 5 5 5 5 5 5 5 5 5 5 5 5 5 5 5 5 5 5 5 5 5 

POINT_DATA 73
