# vtk DataFile Version 1.0
2D Simulation C++
ASCII
DATASET UNSTRUCTURED_GRID
FIELD FieldData 1
NODES 1 2 int
66 106

POINTS 66 double
0.0 0.0 0.0
0.0 1.0 0.0
1.0 1.0 0.0
1.0 0.0 0.0
0.0 0.224003374577 0.0
0.0 0.448006749153 0.0
0.0 0.608711063862 0.0
0.0 0.769415378571 0.0
0.0 0.884707689285 0.0
0.115292325616 1.0 0.0
0.230584651232 1.0 0.0
0.391288936138 1.0 0.0
0.551993250847 1.0 0.0
0.775996625423 1.0 0.0
1.0 0.789787709713 0.0
1.0 0.579575359821 0.0
1.0 0.41641998291 0.0
1.0 0.253264576197 0.0
1.0 0.126632288098 0.0
0.873367726803 0.0 0.0
0.746735394001 0.0 0.0
0.583580076694 0.0 0.0
0.420424699783 0.0 0.0
0.210212349892 0.0 0.0
0.511631278065 0.495105768365 0.0
0.29501064318 0.706052319067 0.0
0.700093198245 0.279982320911 0.0
0.590182720647 0.742469286604 0.0
0.253088795456 0.418264362242 0.0
0.461147683325 0.256806936596 0.0
0.747708385177 0.557652350896 0.0
0.188671662975 0.812733887894 0.0
0.805250611827 0.189234932698 0.0
0.783977211708 0.769141608576 0.0
0.23071905143 0.220235664328 0.0
0.851688560801 0.327180672819 0.0
0.675864958335 0.128387521005 0.0
0.318009444001 0.869081460342 0.0
0.129347261262 0.687304752087 0.0
0.457624903843 0.642170446897 0.0
0.560458726174 0.353528617005 0.0
0.408992659072 0.39838945047 0.0
0.612071150012 0.588585576646 0.0
0.671994596221 0.879467578053 0.0
0.119662135147 0.332727723997 0.0
0.491166238367 0.875961889634 0.0
0.121732286871 0.51619134884 0.0
0.35855603011 0.142202820308 0.0
0.859596219255 0.644265299083 0.0
0.515183881611 0.12429734986 0.0
0.859763704297 0.486541026405 0.0
0.352648211574 0.546153016501 0.0
0.691459062744 0.436521534888 0.0
0.0951596418285 0.905370866809 0.0
0.426007429072 0.767666043534 0.0
0.586417430162 0.228749035878 0.0
0.90124528592 0.0978195718731 0.0
0.798712588715 0.083979871046 0.0
0.911294412788 0.20187485915 0.0
0.192749949374 0.916198099454 0.0
0.0835787718021 0.809458705937 0.0
0.22689252128 0.583529804727 0.0
0.854795886169 0.887391894271 0.0
0.112704637029 0.147159052107 0.0
0.714885218624 0.663119962118 0.0
0.339347291255 0.291185576297 0.0

CELLS 106 424
3 25 31 37
3 25 38 31
3 24 41 51
3 26 52 35
3 24 42 52
3 35 52 50
3 26 32 36
3 26 35 32
3 24 51 39
3 27 43 33
3 28 34 44
3 27 33 64
3 28 65 34
3 17 35 16
3 20 21 36
3 24 52 40
3 28 51 41
3 10 11 37
3 7 38 6
3 30 52 42
3 14 48 33
3 23 34 47
3 12 13 43
3 5 44 4
3 15 50 48
3 22 47 49
3 22 23 47
3 15 48 14
3 27 64 42
3 28 41 65
3 24 39 42
3 33 43 62
3 34 63 44
3 1 53 8
3 1 9 53
3 27 42 39
3 5 46 44
3 12 43 45
3 24 40 41
3 25 37 54
3 29 41 40
3 10 37 59
3 7 60 38
3 20 36 57
3 17 58 35
3 25 61 38
3 32 57 36
3 32 35 58
3 28 44 46
3 27 45 43
3 15 16 50
3 22 49 21
3 31 59 37
3 31 38 60
3 30 50 52
3 29 49 47
3 30 48 50
3 13 62 43
3 4 44 63
3 14 33 62
3 23 63 34
3 21 49 36
3 16 35 50
3 5 6 46
3 12 45 11
3 3 56 18
3 3 19 56
3 28 61 51
3 28 46 61
3 25 39 51
3 11 45 37
3 6 38 46
3 26 40 52
3 26 36 55
3 25 54 39
3 37 45 54
3 26 55 40
3 7 8 60
3 10 59 9
3 27 39 54
3 2 62 13
3 0 4 63
3 29 40 55
3 2 14 62
3 0 63 23
3 20 57 19
3 17 18 58
3 36 49 55
3 27 54 45
3 38 61 46
3 29 55 49
3 8 53 60
3 9 59 53
3 29 47 65
3 30 64 48
3 29 65 41
3 30 42 64
3 25 51 61
3 34 65 47
3 33 48 64
3 31 53 59
3 31 60 53
3 19 57 56
3 18 56 58
3 32 56 57
3 32 58 56

CELL_TYPES 106
5 5 5 5 5 5 5 5 5 5 5 5 5 5 5 5 5 5 5 5 5 5 5 5 5 5 5 5 5 5 5 5 5 5 5 5 5 5 5 5 5 5 5 5 5 5 5 5 5 5 5 5 5 5 5 5 5 5 5 5 5 5 5 5 5 5 5 5 5 5 5 5 5 5 5 5 5 5 5 5 5 5 5 5 5 5 5 5 5 5 5 5 5 5 5 5 5 5 5 5 5 5 5 5 5 5 

POINT_DATA 66
