# vtk DataFile Version 1.0
2D Simulation C++
ASCII
DATASET UNSTRUCTURED_GRID
FIELD FieldData 1
NODES 1 2 int
66 106

POINTS 66 double
0.0 0.0 0.0
0.0 1.0 0.0
1.0 1.0 0.0
1.0 0.0 0.0
0.0 0.224003374577 0.0
0.0 0.448006749153 0.0
0.0 0.608711063862 0.0
0.0 0.769415378571 0.0
0.0 0.884707689285 0.0
0.115292325616 1.0 0.0
0.230584651232 1.0 0.0
0.391288936138 1.0 0.0
0.551993250847 1.0 0.0
0.775996625423 1.0 0.0
1.0 0.789787709713 0.0
1.0 0.579575359821 0.0
1.0 0.41641998291 0.0
1.0 0.253264576197 0.0
1.0 0.126632288098 0.0
0.873367726803 0.0 0.0
0.746735394001 0.0 0.0
0.583580076694 0.0 0.0
0.420424699783 0.0 0.0
0.210212349892 0.0 0.0
0.524434440262 0.490221865835 0.0
0.310333506257 0.692172198895 0.0
0.696490167972 0.282738318033 0.0
0.603132706032 0.743322797742 0.0
0.259471978052 0.401004305781 0.0
0.460088900055 0.251221780914 0.0
0.753894615656 0.564126460123 0.0
0.198445476967 0.802677083842 0.0
0.799182240018 0.193960485183 0.0
0.790822491998 0.772458233471 0.0
0.230307186665 0.21132553167 0.0
0.849884088609 0.332977965911 0.0
0.670386186706 0.128979215869 0.0
0.327167734138 0.863402659478 0.0
0.137308533893 0.674409930069 0.0
0.475463973694 0.636087434344 0.0
0.563604978473 0.351527069876 0.0
0.417593267544 0.38885194976 0.0
0.623639318503 0.588809182965 0.0
0.676648465259 0.881596853358 0.0
0.119314970973 0.324904858668 0.0
0.499245158874 0.8756006211 0.0
0.124983504179 0.502629453858 0.0
0.356152682636 0.136636813124 0.0
0.864422932639 0.649581731134 0.0
0.51091414921 0.121345931623 0.0
0.861514643466 0.493365968133 0.0
0.36884279889 0.530815383831 0.0
0.696311982883 0.440513984153 0.0
0.0992060302286 0.901238830727 0.0
0.440983039492 0.762904227419 0.0
0.581745363257 0.226671573516 0.0
0.897756472911 0.10070378763 0.0
0.794150653176 0.0862436918429 0.0
0.907705571464 0.20634764013 0.0
0.198648480627 0.911628753892 0.0
0.0887941008301 0.802190015694 0.0
0.238721568384 0.562273695233 0.0
0.855329131165 0.889826632208 0.0
0.11084998898 0.145568386157 0.0
0.724189690077 0.667385759329 0.0
0.341161770577 0.280265854774 0.0

CELLS 106 424
3 25 31 37
3 25 38 31
3 24 41 51
3 26 52 35
3 24 42 52
3 35 52 50
3 26 32 36
3 26 35 32
3 24 51 39
3 27 43 33
3 28 34 44
3 27 33 64
3 28 65 34
3 17 35 16
3 20 21 36
3 24 52 40
3 28 51 41
3 10 11 37
3 7 38 6
3 30 52 42
3 14 48 33
3 23 34 47
3 12 13 43
3 5 44 4
3 15 50 48
3 22 47 49
3 22 23 47
3 15 48 14
3 27 64 42
3 28 41 65
3 24 39 42
3 33 43 62
3 34 63 44
3 1 53 8
3 1 9 53
3 27 42 39
3 5 46 44
3 12 43 45
3 24 40 41
3 25 37 54
3 29 41 40
3 10 37 59
3 7 60 38
3 20 36 57
3 17 58 35
3 25 61 38
3 32 57 36
3 32 35 58
3 28 44 46
3 27 45 43
3 15 16 50
3 22 49 21
3 31 59 37
3 31 38 60
3 30 50 52
3 29 49 47
3 30 48 50
3 13 62 43
3 4 44 63
3 14 33 62
3 23 63 34
3 21 49 36
3 16 35 50
3 5 6 46
3 12 45 11
3 3 56 18
3 3 19 56
3 28 61 51
3 28 46 61
3 25 39 51
3 11 45 37
3 6 38 46
3 26 40 52
3 26 36 55
3 25 54 39
3 37 45 54
3 26 55 40
3 7 8 60
3 10 59 9
3 27 39 54
3 2 62 13
3 0 4 63
3 29 40 55
3 2 14 62
3 0 63 23
3 20 57 19
3 17 18 58
3 36 49 55
3 27 54 45
3 38 61 46
3 29 55 49
3 8 53 60
3 9 59 53
3 29 47 65
3 30 64 48
3 29 65 41
3 30 42 64
3 25 51 61
3 34 65 47
3 33 48 64
3 31 53 59
3 31 60 53
3 19 57 56
3 18 56 58
3 32 56 57
3 32 58 56

CELL_TYPES 106
5 5 5 5 5 5 5 5 5 5 5 5 5 5 5 5 5 5 5 5 5 5 5 5 5 5 5 5 5 5 5 5 5 5 5 5 5 5 5 5 5 5 5 5 5 5 5 5 5 5 5 5 5 5 5 5 5 5 5 5 5 5 5 5 5 5 5 5 5 5 5 5 5 5 5 5 5 5 5 5 5 5 5 5 5 5 5 5 5 5 5 5 5 5 5 5 5 5 5 5 5 5 5 5 5 5 

POINT_DATA 66
