# vtk DataFile Version 1.0
2D Simulation C++
ASCII
DATASET UNSTRUCTURED_GRID
FIELD FieldData 1
NODES 1 2 int
66 106

POINTS 66 double
0.0 0.0 0.0
0.0 1.0 0.0
1.0 1.0 0.0
1.0 0.0 0.0
0.0 0.224003374577 0.0
0.0 0.448006749153 0.0
0.0 0.608711063862 0.0
0.0 0.769415378571 0.0
0.0 0.884707689285 0.0
0.115292325616 1.0 0.0
0.230584651232 1.0 0.0
0.391288936138 1.0 0.0
0.551993250847 1.0 0.0
0.775996625423 1.0 0.0
1.0 0.789787709713 0.0
1.0 0.579575359821 0.0
1.0 0.41641998291 0.0
1.0 0.253264576197 0.0
1.0 0.126632288098 0.0
0.873367726803 0.0 0.0
0.746735394001 0.0 0.0
0.583580076694 0.0 0.0
0.420424699783 0.0 0.0
0.210212349892 0.0 0.0
0.515246006709 0.494057385057 0.0
0.299285797599 0.702202562643 0.0
0.698461534828 0.280951062405 0.0
0.59384220719 0.742969627915 0.0
0.254503783106 0.412735179997 0.0
0.460257247801 0.255778205697 0.0
0.748692696197 0.559940841853 0.0
0.191209151974 0.810202943939 0.0
0.803027297012 0.19084565781 0.0
0.785949643397 0.770037506779 0.0
0.230274726625 0.217713279419 0.0
0.850713259345 0.329509495498 0.0
0.673781959619 0.128435229458 0.0
0.320552268123 0.867773537011 0.0
0.131312716287 0.683346800479 0.0
0.46289340847 0.640982970685 0.0
0.561002500202 0.353489501236 0.0
0.411526825413 0.396493031621 0.0
0.614625334177 0.588312774802 0.0
0.673000085958 0.880215473638 0.0
0.119008703205 0.330568937871 0.0
0.493402450489 0.876155277641 0.0
0.122030066746 0.511669282208 0.0
0.357283428405 0.140718361014 0.0
0.860882823517 0.646196686908 0.0
0.513436277636 0.123411056347 0.0
0.859826521986 0.489279030616 0.0
0.357603782275 0.541709808288 0.0
0.692395542241 0.438164586836 0.0
0.0960027584593 0.904603964731 0.0
0.430136105946 0.766879352042 0.0
0.584448952725 0.228116785287 0.0
0.900117971482 0.0987325092538 0.0
0.797118338162 0.0846644093649 0.0
0.910002656034 0.203550486913 0.0
0.194342863278 0.915173371702 0.0
0.0848323973074 0.807552817745 0.0
0.229978820521 0.576323829512 0.0
0.854036795136 0.888278466897 0.0
0.111825250274 0.147692816936 0.0
0.717000057803 0.664363221593 0.0
0.339400625065 0.288493910482 0.0

CELLS 106 424
3 25 31 37
3 25 38 31
3 24 41 51
3 26 52 35
3 24 42 52
3 35 52 50
3 26 32 36
3 26 35 32
3 24 51 39
3 27 43 33
3 28 34 44
3 27 33 64
3 28 65 34
3 17 35 16
3 20 21 36
3 24 52 40
3 28 51 41
3 10 11 37
3 7 38 6
3 30 52 42
3 14 48 33
3 23 34 47
3 12 13 43
3 5 44 4
3 15 50 48
3 22 47 49
3 22 23 47
3 15 48 14
3 27 64 42
3 28 41 65
3 24 39 42
3 33 43 62
3 34 63 44
3 1 53 8
3 1 9 53
3 27 42 39
3 5 46 44
3 12 43 45
3 24 40 41
3 25 37 54
3 29 41 40
3 10 37 59
3 7 60 38
3 20 36 57
3 17 58 35
3 25 61 38
3 32 57 36
3 32 35 58
3 28 44 46
3 27 45 43
3 15 16 50
3 22 49 21
3 31 59 37
3 31 38 60
3 30 50 52
3 29 49 47
3 30 48 50
3 13 62 43
3 4 44 63
3 14 33 62
3 23 63 34
3 21 49 36
3 16 35 50
3 5 6 46
3 12 45 11
3 3 56 18
3 3 19 56
3 28 61 51
3 28 46 61
3 25 39 51
3 11 45 37
3 6 38 46
3 26 40 52
3 26 36 55
3 25 54 39
3 37 45 54
3 26 55 40
3 7 8 60
3 10 59 9
3 27 39 54
3 2 62 13
3 0 4 63
3 29 40 55
3 2 14 62
3 0 63 23
3 20 57 19
3 17 18 58
3 36 49 55
3 27 54 45
3 38 61 46
3 29 55 49
3 8 53 60
3 9 59 53
3 29 47 65
3 30 64 48
3 29 65 41
3 30 42 64
3 25 51 61
3 34 65 47
3 33 48 64
3 31 53 59
3 31 60 53
3 19 57 56
3 18 56 58
3 32 56 57
3 32 58 56

CELL_TYPES 106
5 5 5 5 5 5 5 5 5 5 5 5 5 5 5 5 5 5 5 5 5 5 5 5 5 5 5 5 5 5 5 5 5 5 5 5 5 5 5 5 5 5 5 5 5 5 5 5 5 5 5 5 5 5 5 5 5 5 5 5 5 5 5 5 5 5 5 5 5 5 5 5 5 5 5 5 5 5 5 5 5 5 5 5 5 5 5 5 5 5 5 5 5 5 5 5 5 5 5 5 5 5 5 5 5 5 

POINT_DATA 66
