# vtk DataFile Version 1.0
2D Simulation C++
ASCII
DATASET UNSTRUCTURED_GRID
FIELD FieldData 1
NODES 1 2 int
73 120

POINTS 73 double
0.0 0.0 0.0
0.0 1.0 0.0
1.0 1.0 0.0
1.0 0.0 0.0
0.0 0.224003374577 0.0
0.0 0.448006749153 0.0
0.0 0.608711063862 0.0
0.0 0.769415378571 0.0
0.0 0.884707689285 0.0
0.115292325616 1.0 0.0
0.230584651232 1.0 0.0
0.391288936138 1.0 0.0
0.551993250847 1.0 0.0
0.775996625423 1.0 0.0
1.0 0.789787709713 0.0
1.0 0.579575359821 0.0
1.0 0.41641998291 0.0
1.0 0.253264576197 0.0
1.0 0.126632288098 0.0
0.873367726803 0.0 0.0
0.746735394001 0.0 0.0
0.583580076694 0.0 0.0
0.420424699783 0.0 0.0
0.210212349892 0.0 0.0
0.405388136533 0.594626374034 0.0
0.595624482634 0.404382605856 0.0
0.299911772183 0.303647938344 0.0
0.696314339923 0.700186428027 0.0
0.209892460922 0.790177130347 0.0
0.79019500026 0.209856745629 0.0
0.81947433754 0.434739849134 0.0
0.565321452532 0.180535275334 0.0
0.182259149779 0.572709149775 0.0
0.427332644184 0.817809117967 0.0
0.10780492202 0.892241349919 0.0
0.101513562654 0.778126437816 0.0
0.221944436643 0.898522166331 0.0
0.835684386656 0.841313098139 0.0
0.65535692338 0.869147167405 0.0
0.130947825298 0.344663156979 0.0
0.158737967431 0.164318335069 0.0
0.500327335446 0.499664664915 0.0
0.459313764991 0.362703535879 0.0
0.362908557089 0.460276057068 0.0
0.539689265756 0.637159593586 0.0
0.637250166139 0.540737380566 0.0
0.332666547919 0.133135381684 0.0
0.866840733291 0.667383837616 0.0
0.571833398925 0.282057116694 0.0
0.447115802047 0.229463136676 0.0
0.770498755678 0.552952400852 0.0
0.717946561764 0.428225344521 0.0
0.0945256072414 0.654164598021 0.0
0.104839052429 0.509269672772 0.0
0.490762649362 0.895231772647 0.0
0.34589447405 0.905503880166 0.0
0.229249183014 0.453354111806 0.0
0.283841644841 0.573480353779 0.0
0.426535919146 0.716219582741 0.0
0.546645780047 0.770870262535 0.0
0.890578799166 0.109442665951 0.0
0.899765169944 0.229590862709 0.0
0.770440922692 0.100265548378 0.0
0.906847945107 0.359410888038 0.0
0.895565067259 0.505890172793 0.0
0.494154896246 0.104424479589 0.0
0.640622716202 0.0931726331604 0.0
0.3084967838 0.691550061309 0.0
0.321718960508 0.802472316305 0.0
0.197573966543 0.678351038541 0.0
0.674768616052 0.19531154786 0.0
0.80473158143 0.325290928813 0.0
0.692708924977 0.307341292173 0.0

CELLS 120 480
3 1 34 8
3 34 35 8
3 34 28 35
3 8 35 7
3 1 9 34
3 9 36 34
3 9 10 36
3 34 36 28
3 2 37 13
3 37 38 13
3 37 27 38
3 13 38 12
3 0 4 40
3 4 39 40
3 4 5 39
3 40 39 26
3 24 41 43
3 41 42 43
3 41 25 42
3 43 42 26
3 24 44 41
3 44 45 41
3 44 27 45
3 41 45 25
3 0 40 23
3 40 46 23
3 40 26 46
3 23 46 22
3 2 14 37
3 14 47 37
3 14 15 47
3 37 47 27
3 25 48 42
3 48 49 42
3 48 31 49
3 42 49 26
3 25 45 51
3 45 50 51
3 45 27 50
3 51 50 30
3 5 6 53
3 6 52 53
3 6 7 52
3 53 52 32
3 10 11 55
3 11 54 55
3 11 12 54
3 55 54 33
3 24 43 57
3 43 56 57
3 43 26 56
3 57 56 32
3 24 58 44
3 58 59 44
3 58 33 59
3 44 59 27
3 3 60 18
3 60 61 18
3 60 29 61
3 18 61 17
3 3 19 60
3 19 62 60
3 19 20 62
3 60 62 29
3 5 53 39
3 53 56 39
3 53 32 56
3 39 56 26
3 12 38 54
3 38 59 54
3 38 27 59
3 54 59 33
3 15 16 64
3 16 63 64
3 16 17 63
3 64 63 30
3 20 21 66
3 21 65 66
3 21 22 65
3 66 65 31
3 22 46 65
3 46 49 65
3 46 26 49
3 65 49 31
3 15 64 47
3 64 50 47
3 64 30 50
3 47 50 27
3 24 67 58
3 67 68 58
3 67 28 68
3 58 68 33
3 24 57 67
3 57 69 67
3 57 32 69
3 67 69 28
3 7 35 52
3 35 69 52
3 35 28 69
3 52 69 32
3 10 55 36
3 55 68 36
3 55 33 68
3 36 68 28
3 20 66 62
3 66 70 62
3 66 31 70
3 62 70 29
3 17 61 63
3 61 71 63
3 61 29 71
3 63 71 30
3 25 72 48
3 72 70 48
3 72 29 70
3 48 70 31
3 25 51 72
3 51 71 72
3 51 30 71
3 72 71 29

CELL_TYPES 120
5 5 5 5 5 5 5 5 5 5 5 5 5 5 5 5 5 5 5 5 5 5 5 5 5 5 5 5 5 5 5 5 5 5 5 5 5 5 5 5 5 5 5 5 5 5 5 5 5 5 5 5 5 5 5 5 5 5 5 5 5 5 5 5 5 5 5 5 5 5 5 5 5 5 5 5 5 5 5 5 5 5 5 5 5 5 5 5 5 5 5 5 5 5 5 5 5 5 5 5 5 5 5 5 5 5 5 5 5 5 5 5 5 5 5 5 5 5 5 5 

POINT_DATA 73
