# vtk DataFile Version 1.0
2D Simulation C++
ASCII
DATASET UNSTRUCTURED_GRID
FIELD FieldData 1
NODES 1 2 int
66 106

POINTS 66 double
0.0 0.0 0.0
0.0 1.0 0.0
1.0 1.0 0.0
1.0 0.0 0.0
0.0 0.224003374577 0.0
0.0 0.448006749153 0.0
0.0 0.608711063862 0.0
0.0 0.769415378571 0.0
0.0 0.884707689285 0.0
0.115292325616 1.0 0.0
0.230584651232 1.0 0.0
0.391288936138 1.0 0.0
0.551993250847 1.0 0.0
0.775996625423 1.0 0.0
1.0 0.789787709713 0.0
1.0 0.579575359821 0.0
1.0 0.41641998291 0.0
1.0 0.253264576197 0.0
1.0 0.126632288098 0.0
0.873367726803 0.0 0.0
0.746735394001 0.0 0.0
0.583580076694 0.0 0.0
0.420424699783 0.0 0.0
0.210212349892 0.0 0.0
0.521866930129 0.491503623094 0.0
0.307302761314 0.694867835366 0.0
0.696611166142 0.28246353267 0.0
0.600563577396 0.743409624398 0.0
0.257914997813 0.403940145552 0.0
0.459759844721 0.252697036782 0.0
0.752131623071 0.563313233267 0.0
0.196383336093 0.804789800334 0.0
0.799878822617 0.193323675256 0.0
0.789422491612 0.771885914451 0.0
0.230044396986 0.213030083985 0.0
0.84983535745 0.332376775893 0.0
0.670969484583 0.128869434472 0.0
0.325340721469 0.864708837234 0.0
0.135592126049 0.676634782027 0.0
0.472073508059 0.637650098808 0.0
0.56262765232 0.352349246763 0.0
0.415842640856 0.39117580157 0.0
0.62092013175 0.588800803344 0.0
0.675538267098 0.881324925047 0.0
0.118958474704 0.326387043542 0.0
0.497631591948 0.875913033485 0.0
0.123935230775 0.504772619456 0.0
0.356158842764 0.137819928751 0.0
0.863330420578 0.648895161155 0.0
0.511249130292 0.121950971918 0.0
0.860822569277 0.492643437719 0.0
0.365837937199 0.533740622395 0.0
0.694972236527 0.440203252006 0.0
0.0982510045137 0.902264376038 0.0
0.438026124899 0.76423255037 0.0
0.582027203861 0.227166112969 0.0
0.898246719777 0.100283746242 0.0
0.794739757774 0.0858866949316 0.0
0.908123871244 0.205819381849 0.0
0.197434264861 0.912700190865 0.0
0.0876433853231 0.803652476388 0.0
0.236228172375 0.565633116603 0.0
0.854766270544 0.889479639936 0.0
0.110938409946 0.146308685383 0.0
0.721999216989 0.666710167648 0.0
0.340398457651 0.282608739309 0.0

CELLS 106 424
3 25 31 37
3 25 38 31
3 24 41 51
3 26 52 35
3 24 42 52
3 35 52 50
3 26 32 36
3 26 35 32
3 24 51 39
3 27 43 33
3 28 34 44
3 27 33 64
3 28 65 34
3 17 35 16
3 20 21 36
3 24 52 40
3 28 51 41
3 10 11 37
3 7 38 6
3 30 52 42
3 14 48 33
3 23 34 47
3 12 13 43
3 5 44 4
3 15 50 48
3 22 47 49
3 22 23 47
3 15 48 14
3 27 64 42
3 28 41 65
3 24 39 42
3 33 43 62
3 34 63 44
3 1 53 8
3 1 9 53
3 27 42 39
3 5 46 44
3 12 43 45
3 24 40 41
3 25 37 54
3 29 41 40
3 10 37 59
3 7 60 38
3 20 36 57
3 17 58 35
3 25 61 38
3 32 57 36
3 32 35 58
3 28 44 46
3 27 45 43
3 15 16 50
3 22 49 21
3 31 59 37
3 31 38 60
3 30 50 52
3 29 49 47
3 30 48 50
3 13 62 43
3 4 44 63
3 14 33 62
3 23 63 34
3 21 49 36
3 16 35 50
3 5 6 46
3 12 45 11
3 3 56 18
3 3 19 56
3 28 61 51
3 28 46 61
3 25 39 51
3 11 45 37
3 6 38 46
3 26 40 52
3 26 36 55
3 25 54 39
3 37 45 54
3 26 55 40
3 7 8 60
3 10 59 9
3 27 39 54
3 2 62 13
3 0 4 63
3 29 40 55
3 2 14 62
3 0 63 23
3 20 57 19
3 17 18 58
3 36 49 55
3 27 54 45
3 38 61 46
3 29 55 49
3 8 53 60
3 9 59 53
3 29 47 65
3 30 64 48
3 29 65 41
3 30 42 64
3 25 51 61
3 34 65 47
3 33 48 64
3 31 53 59
3 31 60 53
3 19 57 56
3 18 56 58
3 32 56 57
3 32 58 56

CELL_TYPES 106
5 5 5 5 5 5 5 5 5 5 5 5 5 5 5 5 5 5 5 5 5 5 5 5 5 5 5 5 5 5 5 5 5 5 5 5 5 5 5 5 5 5 5 5 5 5 5 5 5 5 5 5 5 5 5 5 5 5 5 5 5 5 5 5 5 5 5 5 5 5 5 5 5 5 5 5 5 5 5 5 5 5 5 5 5 5 5 5 5 5 5 5 5 5 5 5 5 5 5 5 5 5 5 5 5 5 

POINT_DATA 66
