# vtk DataFile Version 1.0
2D Simulation C++
ASCII
DATASET UNSTRUCTURED_GRID
FIELD FieldData 1
NODES 1 2 int
66 106

POINTS 66 double
0.0 0.0 0.0
0.0 1.0 0.0
1.0 1.0 0.0
1.0 0.0 0.0
0.0 0.224003374577 0.0
0.0 0.448006749153 0.0
0.0 0.608711063862 0.0
0.0 0.769415378571 0.0
0.0 0.884707689285 0.0
0.115292325616 1.0 0.0
0.230584651232 1.0 0.0
0.391288936138 1.0 0.0
0.551993250847 1.0 0.0
0.775996625423 1.0 0.0
1.0 0.789787709713 0.0
1.0 0.579575359821 0.0
1.0 0.41641998291 0.0
1.0 0.253264576197 0.0
1.0 0.126632288098 0.0
0.873367726803 0.0 0.0
0.746735394001 0.0 0.0
0.583580076694 0.0 0.0
0.420424699783 0.0 0.0
0.210212349892 0.0 0.0
0.510000316133 0.495544399293 0.0
0.293108966348 0.707683316309 0.0
0.700916286419 0.279576397836 0.0
0.588512545008 0.742177947767 0.0
0.252571500084 0.420989024414 0.0
0.461664247003 0.25709664909 0.0
0.747497312926 0.556557508567 0.0
0.187580532143 0.813749300222 0.0
0.80633429956 0.1884751456 0.0
0.782961693991 0.768823104276 0.0
0.230925493284 0.221367899756 0.0
0.852230184728 0.32594391351 0.0
0.676908227915 0.128445038212 0.0
0.316869522952 0.869592845991 0.0
0.128589815018 0.689107670323 0.0
0.455129418232 0.64251289501 0.0
0.560283131234 0.353413284827 0.0
0.407731398542 0.398882080295 0.0
0.611204681112 0.589043992329 0.0
0.671622080158 0.879105954643 0.0
0.120091869093 0.333649526468 0.0
0.490171608145 0.875811866101 0.0
0.121801401584 0.518415371935 0.0
0.359307361295 0.14289532488 0.0
0.858946348105 0.643278436192 0.0
0.516035821712 0.124758732662 0.0
0.859839701388 0.48509515752 0.0
0.350223340235 0.54821447151 0.0
0.691112859374 0.435658629251 0.0
0.0949231972286 0.90554574545 0.0
0.424258402268 0.767867146615 0.0
0.587379330949 0.229131260145 0.0
0.90172795027 0.0974398759275 0.0
0.799474416676 0.0836802262233 0.0
0.911896481718 0.201037596118 0.0
0.192033225689 0.916597680951 0.0
0.083089949129 0.810247670382 0.0
0.225584322086 0.58719415994 0.0
0.855632393577 0.886910748158 0.0
0.113195879326 0.1463377365 0.0
0.714096989968 0.662590906108 0.0
0.339440311346 0.292214065154 0.0

CELLS 106 424
3 25 31 37
3 25 38 31
3 24 41 51
3 26 52 35
3 24 42 52
3 35 52 50
3 26 32 36
3 26 35 32
3 24 51 39
3 27 43 33
3 28 34 44
3 27 33 64
3 28 65 34
3 17 35 16
3 20 21 36
3 24 52 40
3 28 51 41
3 10 11 37
3 7 38 6
3 30 52 42
3 14 48 33
3 23 34 47
3 12 13 43
3 5 44 4
3 15 50 48
3 22 47 49
3 22 23 47
3 15 48 14
3 27 64 42
3 28 41 65
3 24 39 42
3 33 43 62
3 34 63 44
3 1 53 8
3 1 9 53
3 27 42 39
3 5 46 44
3 12 43 45
3 24 40 41
3 25 37 54
3 29 41 40
3 10 37 59
3 7 60 38
3 20 36 57
3 17 58 35
3 25 61 38
3 32 57 36
3 32 35 58
3 28 44 46
3 27 45 43
3 15 16 50
3 22 49 21
3 31 59 37
3 31 38 60
3 30 50 52
3 29 49 47
3 30 48 50
3 13 62 43
3 4 44 63
3 14 33 62
3 23 63 34
3 21 49 36
3 16 35 50
3 5 6 46
3 12 45 11
3 3 56 18
3 3 19 56
3 28 61 51
3 28 46 61
3 25 39 51
3 11 45 37
3 6 38 46
3 26 40 52
3 26 36 55
3 25 54 39
3 37 45 54
3 26 55 40
3 7 8 60
3 10 59 9
3 27 39 54
3 2 62 13
3 0 4 63
3 29 40 55
3 2 14 62
3 0 63 23
3 20 57 19
3 17 18 58
3 36 49 55
3 27 54 45
3 38 61 46
3 29 55 49
3 8 53 60
3 9 59 53
3 29 47 65
3 30 64 48
3 29 65 41
3 30 42 64
3 25 51 61
3 34 65 47
3 33 48 64
3 31 53 59
3 31 60 53
3 19 57 56
3 18 56 58
3 32 56 57
3 32 58 56

CELL_TYPES 106
5 5 5 5 5 5 5 5 5 5 5 5 5 5 5 5 5 5 5 5 5 5 5 5 5 5 5 5 5 5 5 5 5 5 5 5 5 5 5 5 5 5 5 5 5 5 5 5 5 5 5 5 5 5 5 5 5 5 5 5 5 5 5 5 5 5 5 5 5 5 5 5 5 5 5 5 5 5 5 5 5 5 5 5 5 5 5 5 5 5 5 5 5 5 5 5 5 5 5 5 5 5 5 5 5 5 

POINT_DATA 66
