# vtk DataFile Version 1.0
2D Simulation C++
ASCII
DATASET UNSTRUCTURED_GRID
FIELD FieldData 1
NODES 1 2 int
73 120

POINTS 73 double
0.0 0.0 0.0
0.0 1.0 0.0
1.0 1.0 0.0
1.0 0.0 0.0
0.0 0.224003374577 0.0
0.0 0.448006749153 0.0
0.0 0.608711063862 0.0
0.0 0.769415378571 0.0
0.0 0.884707689285 0.0
0.115292325616 1.0 0.0
0.230584651232 1.0 0.0
0.391288936138 1.0 0.0
0.551993250847 1.0 0.0
0.775996625423 1.0 0.0
1.0 0.789787709713 0.0
1.0 0.579575359821 0.0
1.0 0.41641998291 0.0
1.0 0.253264576197 0.0
1.0 0.126632288098 0.0
0.873367726803 0.0 0.0
0.746735394001 0.0 0.0
0.583580076694 0.0 0.0
0.420424699783 0.0 0.0
0.210212349892 0.0 0.0
0.404324771506 0.595689152252 0.0
0.598307942312 0.401583325981 0.0
0.304153908432 0.30834228836 0.0
0.691393590169 0.696213519738 0.0
0.214649879295 0.785526796738 0.0
0.794639939535 0.205462475483 0.0
0.821710231863 0.425826190788 0.0
0.574280238937 0.17844519582 0.0
0.182996911184 0.577369178311 0.0
0.422471544725 0.816874679727 0.0
0.11086834437 0.889230280451 0.0
0.105250062086 0.777407321593 0.0
0.223021314819 0.894693551097 0.0
0.83333129426 0.839990663673 0.0
0.64882827201 0.865929414353 0.0
0.134983607877 0.35195563043 0.0
0.160190474774 0.166973005952 0.0
0.499963217958 0.499781789644 0.0
0.463484264815 0.364468753668 0.0
0.36487316303 0.4642506046 0.0
0.535505887798 0.635289348687 0.0
0.635209826913 0.536193536433 0.0
0.337392550135 0.135887550546 0.0
0.864055061343 0.662655399454 0.0
0.579571813114 0.280843080628 0.0
0.455209479338 0.230573592548 0.0
0.769283476089 0.544781080842 0.0
0.719315977686 0.420503258584 0.0
0.0950699290671 0.658430289555 0.0
0.104650922707 0.514789795445 0.0
0.485261396006 0.895118294757 0.0
0.342287429687 0.904544583402 0.0
0.23254536034 0.459454188848 0.0
0.285123510082 0.57637983454 0.0
0.423633769452 0.714947651009 0.0
0.539844466191 0.768412905785 0.0
0.892809559997 0.107207239098 0.0
0.902093448762 0.225220318963 0.0
0.774809920093 0.0979494747932 0.0
0.909243504566 0.353226936911 0.0
0.896809295126 0.499972080452 0.0
0.500064490602 0.103189829864 0.0
0.646802626775 0.0908112896223 0.0
0.310032745166 0.690130338377 0.0
0.321884091351 0.799584614686 0.0
0.200283541659 0.678539880155 0.0
0.682038353846 0.191967877403 0.0
0.808209325982 0.318092321739 0.0
0.697791997571 0.302452763458 0.0

CELLS 120 480
3 1 34 8
3 34 35 8
3 34 28 35
3 8 35 7
3 1 9 34
3 9 36 34
3 9 10 36
3 34 36 28
3 2 37 13
3 37 38 13
3 37 27 38
3 13 38 12
3 0 4 40
3 4 39 40
3 4 5 39
3 40 39 26
3 24 41 43
3 41 42 43
3 41 25 42
3 43 42 26
3 24 44 41
3 44 45 41
3 44 27 45
3 41 45 25
3 0 40 23
3 40 46 23
3 40 26 46
3 23 46 22
3 2 14 37
3 14 47 37
3 14 15 47
3 37 47 27
3 25 48 42
3 48 49 42
3 48 31 49
3 42 49 26
3 25 45 51
3 45 50 51
3 45 27 50
3 51 50 30
3 5 6 53
3 6 52 53
3 6 7 52
3 53 52 32
3 10 11 55
3 11 54 55
3 11 12 54
3 55 54 33
3 24 43 57
3 43 56 57
3 43 26 56
3 57 56 32
3 24 58 44
3 58 59 44
3 58 33 59
3 44 59 27
3 3 60 18
3 60 61 18
3 60 29 61
3 18 61 17
3 3 19 60
3 19 62 60
3 19 20 62
3 60 62 29
3 5 53 39
3 53 56 39
3 53 32 56
3 39 56 26
3 12 38 54
3 38 59 54
3 38 27 59
3 54 59 33
3 15 16 64
3 16 63 64
3 16 17 63
3 64 63 30
3 20 21 66
3 21 65 66
3 21 22 65
3 66 65 31
3 22 46 65
3 46 49 65
3 46 26 49
3 65 49 31
3 15 64 47
3 64 50 47
3 64 30 50
3 47 50 27
3 24 67 58
3 67 68 58
3 67 28 68
3 58 68 33
3 24 57 67
3 57 69 67
3 57 32 69
3 67 69 28
3 7 35 52
3 35 69 52
3 35 28 69
3 52 69 32
3 10 55 36
3 55 68 36
3 55 33 68
3 36 68 28
3 20 66 62
3 66 70 62
3 66 31 70
3 62 70 29
3 17 61 63
3 61 71 63
3 61 29 71
3 63 71 30
3 25 72 48
3 72 70 48
3 72 29 70
3 48 70 31
3 25 51 72
3 51 71 72
3 51 30 71
3 72 71 29

CELL_TYPES 120
5 5 5 5 5 5 5 5 5 5 5 5 5 5 5 5 5 5 5 5 5 5 5 5 5 5 5 5 5 5 5 5 5 5 5 5 5 5 5 5 5 5 5 5 5 5 5 5 5 5 5 5 5 5 5 5 5 5 5 5 5 5 5 5 5 5 5 5 5 5 5 5 5 5 5 5 5 5 5 5 5 5 5 5 5 5 5 5 5 5 5 5 5 5 5 5 5 5 5 5 5 5 5 5 5 5 5 5 5 5 5 5 5 5 5 5 5 5 5 5 

POINT_DATA 73
