# vtk DataFile Version 1.0
2D Simulation C++
ASCII
DATASET UNSTRUCTURED_GRID
FIELD FieldData 1
NODES 1 2 int
66 106

POINTS 66 double
0.0 0.0 0.0
0.0 1.0 0.0
1.0 1.0 0.0
1.0 0.0 0.0
0.0 0.224003374577 0.0
0.0 0.448006749153 0.0
0.0 0.608711063862 0.0
0.0 0.769415378571 0.0
0.0 0.884707689285 0.0
0.115292325616 1.0 0.0
0.230584651232 1.0 0.0
0.391288936138 1.0 0.0
0.551993250847 1.0 0.0
0.775996625423 1.0 0.0
1.0 0.789787709713 0.0
1.0 0.579575359821 0.0
1.0 0.41641998291 0.0
1.0 0.253264576197 0.0
1.0 0.126632288098 0.0
0.873367726803 0.0 0.0
0.746735394001 0.0 0.0
0.583580076694 0.0 0.0
0.420424699783 0.0 0.0
0.210212349892 0.0 0.0
0.529887905155 0.487032274402 0.0
0.316131091927 0.68728506949 0.0
0.697632438322 0.282314732621 0.0
0.608157883723 0.742398534914 0.0
0.263068164214 0.395970729705 0.0
0.461985062162 0.247985698302 0.0
0.757949845186 0.564470060071 0.0
0.202389699253 0.79890033459 0.0
0.799017435701 0.194371505174 0.0
0.793649542859 0.772948955252 0.0
0.231560742993 0.208362133986 0.0
0.850789132773 0.333254105241 0.0
0.670342086937 0.12871077542 0.0
0.330642518895 0.860872611385 0.0
0.140618849295 0.670733714447 0.0
0.482059092223 0.632572924164 0.0
0.566626678247 0.349113886834 0.0
0.42173844493 0.38416282303 0.0
0.629336403934 0.587798497962 0.0
0.678841310388 0.881697046187 0.0
0.120547528937 0.322471831671 0.0
0.502330541702 0.874619781323 0.0
0.127350060653 0.499197108158 0.0
0.356956215573 0.134312941188 0.0
0.866851294918 0.650150456636 0.0
0.511281483669 0.119923453768 0.0
0.863405100865 0.493820433224 0.0
0.374846764593 0.525377467659 0.0
0.699742302528 0.43995976065 0.0
0.101034383536 0.899366485632 0.0
0.446602412633 0.759960217723 0.0
0.582695317298 0.22508990344 0.0
0.89740753741 0.1010654294 0.0
0.793782728314 0.0865117956096 0.0
0.907582787866 0.206741408686 0.0
0.200963825149 0.90962025432 0.0
0.0909860629697 0.799680146441 0.0
0.243703841085 0.556687161955 0.0
0.856481893551 0.890256438049 0.0
0.111075533511 0.144330128281 0.0
0.728784927753 0.667681227561 0.0
0.343621113572 0.275867160277 0.0

CELLS 106 424
3 25 31 37
3 25 38 31
3 24 41 51
3 26 52 35
3 24 42 52
3 35 52 50
3 26 32 36
3 26 35 32
3 24 51 39
3 27 43 33
3 28 34 44
3 27 33 64
3 28 65 34
3 17 35 16
3 20 21 36
3 24 52 40
3 28 51 41
3 10 11 37
3 7 38 6
3 30 52 42
3 14 48 33
3 23 34 47
3 12 13 43
3 5 44 4
3 15 50 48
3 22 47 49
3 22 23 47
3 15 48 14
3 27 64 42
3 28 41 65
3 24 39 42
3 33 43 62
3 34 63 44
3 1 53 8
3 1 9 53
3 27 42 39
3 5 46 44
3 12 43 45
3 24 40 41
3 25 37 54
3 29 41 40
3 10 37 59
3 7 60 38
3 20 36 57
3 17 58 35
3 25 61 38
3 32 57 36
3 32 35 58
3 28 44 46
3 27 45 43
3 15 16 50
3 22 49 21
3 31 59 37
3 31 38 60
3 30 50 52
3 29 49 47
3 30 48 50
3 13 62 43
3 4 44 63
3 14 33 62
3 23 63 34
3 21 49 36
3 16 35 50
3 5 6 46
3 12 45 11
3 3 56 18
3 3 19 56
3 28 61 51
3 28 46 61
3 25 39 51
3 11 45 37
3 6 38 46
3 26 40 52
3 26 36 55
3 25 54 39
3 37 45 54
3 26 55 40
3 7 8 60
3 10 59 9
3 27 39 54
3 2 62 13
3 0 4 63
3 29 40 55
3 2 14 62
3 0 63 23
3 20 57 19
3 17 18 58
3 36 49 55
3 27 54 45
3 38 61 46
3 29 55 49
3 8 53 60
3 9 59 53
3 29 47 65
3 30 64 48
3 29 65 41
3 30 42 64
3 25 51 61
3 34 65 47
3 33 48 64
3 31 53 59
3 31 60 53
3 19 57 56
3 18 56 58
3 32 56 57
3 32 58 56

CELL_TYPES 106
5 5 5 5 5 5 5 5 5 5 5 5 5 5 5 5 5 5 5 5 5 5 5 5 5 5 5 5 5 5 5 5 5 5 5 5 5 5 5 5 5 5 5 5 5 5 5 5 5 5 5 5 5 5 5 5 5 5 5 5 5 5 5 5 5 5 5 5 5 5 5 5 5 5 5 5 5 5 5 5 5 5 5 5 5 5 5 5 5 5 5 5 5 5 5 5 5 5 5 5 5 5 5 5 5 5 

POINT_DATA 66
