# vtk DataFile Version 1.0
2D Simulation C++
ASCII
DATASET UNSTRUCTURED_GRID
FIELD FieldData 1
NODES 1 2 int
73 120

POINTS 73 double
0.0 0.0 0.0
0.0 1.0 0.0
1.0 1.0 0.0
1.0 0.0 0.0
0.0 0.224003374577 0.0
0.0 0.448006749153 0.0
0.0 0.608711063862 0.0
0.0 0.769415378571 0.0
0.0 0.884707689285 0.0
0.115292325616 1.0 0.0
0.230584651232 1.0 0.0
0.391288936138 1.0 0.0
0.551993250847 1.0 0.0
0.775996625423 1.0 0.0
1.0 0.789787709713 0.0
1.0 0.579575359821 0.0
1.0 0.41641998291 0.0
1.0 0.253264576197 0.0
1.0 0.126632288098 0.0
0.873367726803 0.0 0.0
0.746735394001 0.0 0.0
0.583580076694 0.0 0.0
0.420424699783 0.0 0.0
0.210212349892 0.0 0.0
0.401882614521 0.598317819719 0.0
0.600569390874 0.399789469899 0.0
0.303600622288 0.314792359919 0.0
0.685130067471 0.69646050958 0.0
0.228114003663 0.771904831002 0.0
0.79618305449 0.203826204283 0.0
0.823664319826 0.419206835295 0.0
0.581238104307 0.176793701338 0.0
0.183406880815 0.581485423424 0.0
0.418420460698 0.816239632249 0.0
0.114600542175 0.885400074239 0.0
0.113962006483 0.770832260026 0.0
0.229259276667 0.886018073856 0.0
0.841193138866 0.847425622643 0.0
0.627898811068 0.854725851309 0.0
0.150197186346 0.379028393682 0.0
0.15261153169 0.15891997972 0.0
0.498576733011 0.501121296896 0.0
0.463823285598 0.367590777791 0.0
0.365377976914 0.469500934372 0.0
0.53056068143 0.634404132359 0.0
0.631174226031 0.533590122921 0.0
0.347461574249 0.142707334709 0.0
0.857281820082 0.652517432827 0.0
0.588933265737 0.282058909814 0.0
0.464224868637 0.229728253166 0.0
0.77007264976 0.535262430907 0.0
0.718728474893 0.411805135777 0.0
0.0926127609279 0.674362853384 0.0
0.0935479343516 0.51572093338 0.0
0.482252322104 0.90216511917 0.0
0.330826541352 0.905572857542 0.0
0.240012704249 0.457024029756 0.0
0.284442070972 0.579653623802 0.0
0.421716190621 0.715308981624 0.0
0.535643966739 0.765039202286 0.0
0.894117929349 0.105882099167 0.0
0.903412264266 0.2223884968 0.0
0.777612270435 0.0965878427588 0.0
0.912220588175 0.342223302341 0.0
0.904001819525 0.495897022125 0.0
0.504058644869 0.0959891649074 0.0
0.657770673756 0.0876849525107 0.0
0.310411199337 0.68999294046 0.0
0.323160638003 0.797272955707 0.0
0.20236934644 0.67808237095 0.0
0.686916372882 0.188804565586 0.0
0.811304464457 0.313195050873 0.0
0.70094859601 0.299770333061 0.0

CELLS 120 480
3 1 34 8
3 34 35 8
3 34 28 35
3 8 35 7
3 1 9 34
3 9 36 34
3 9 10 36
3 34 36 28
3 2 37 13
3 37 38 13
3 37 27 38
3 13 38 12
3 0 4 40
3 4 39 40
3 4 5 39
3 40 39 26
3 24 41 43
3 41 42 43
3 41 25 42
3 43 42 26
3 24 44 41
3 44 45 41
3 44 27 45
3 41 45 25
3 0 40 23
3 40 46 23
3 40 26 46
3 23 46 22
3 2 14 37
3 14 47 37
3 14 15 47
3 37 47 27
3 25 48 42
3 48 49 42
3 48 31 49
3 42 49 26
3 25 45 51
3 45 50 51
3 45 27 50
3 51 50 30
3 5 6 53
3 6 52 53
3 6 7 52
3 53 52 32
3 10 11 55
3 11 54 55
3 11 12 54
3 55 54 33
3 24 43 57
3 43 56 57
3 43 26 56
3 57 56 32
3 24 58 44
3 58 59 44
3 58 33 59
3 44 59 27
3 3 60 18
3 60 61 18
3 60 29 61
3 18 61 17
3 3 19 60
3 19 62 60
3 19 20 62
3 60 62 29
3 5 53 39
3 53 56 39
3 53 32 56
3 39 56 26
3 12 38 54
3 38 59 54
3 38 27 59
3 54 59 33
3 15 16 64
3 16 63 64
3 16 17 63
3 64 63 30
3 20 21 66
3 21 65 66
3 21 22 65
3 66 65 31
3 22 46 65
3 46 49 65
3 46 26 49
3 65 49 31
3 15 64 47
3 64 50 47
3 64 30 50
3 47 50 27
3 24 67 58
3 67 68 58
3 67 28 68
3 58 68 33
3 24 57 67
3 57 69 67
3 57 32 69
3 67 69 28
3 7 35 52
3 35 69 52
3 35 28 69
3 52 69 32
3 10 55 36
3 55 68 36
3 55 33 68
3 36 68 28
3 20 66 62
3 66 70 62
3 66 31 70
3 62 70 29
3 17 61 63
3 61 71 63
3 61 29 71
3 63 71 30
3 25 72 48
3 72 70 48
3 72 29 70
3 48 70 31
3 25 51 72
3 51 71 72
3 51 30 71
3 72 71 29

CELL_TYPES 120
5 5 5 5 5 5 5 5 5 5 5 5 5 5 5 5 5 5 5 5 5 5 5 5 5 5 5 5 5 5 5 5 5 5 5 5 5 5 5 5 5 5 5 5 5 5 5 5 5 5 5 5 5 5 5 5 5 5 5 5 5 5 5 5 5 5 5 5 5 5 5 5 5 5 5 5 5 5 5 5 5 5 5 5 5 5 5 5 5 5 5 5 5 5 5 5 5 5 5 5 5 5 5 5 5 5 5 5 5 5 5 5 5 5 5 5 5 5 5 5 

POINT_DATA 73
