# vtk DataFile Version 1.0
2D Simulation C++
ASCII
DATASET UNSTRUCTURED_GRID
FIELD FieldData 1
NODES 1 2 int
66 106

POINTS 66 double
0.0 0.0 0.0
0.0 1.0 0.0
1.0 1.0 0.0
1.0 0.0 0.0
0.0 0.224003374577 0.0
0.0 0.448006749153 0.0
0.0 0.608711063862 0.0
0.0 0.769415378571 0.0
0.0 0.884707689285 0.0
0.115292325616 1.0 0.0
0.230584651232 1.0 0.0
0.391288936138 1.0 0.0
0.551993250847 1.0 0.0
0.775996625423 1.0 0.0
1.0 0.789787709713 0.0
1.0 0.579575359821 0.0
1.0 0.41641998291 0.0
1.0 0.253264576197 0.0
1.0 0.126632288098 0.0
0.873367726803 0.0 0.0
0.746735394001 0.0 0.0
0.583580076694 0.0 0.0
0.420424699783 0.0 0.0
0.210212349892 0.0 0.0
0.524813581198 0.490019134894 0.0
0.310768966298 0.691791179609 0.0
0.696506882168 0.282755975839 0.0
0.603504912361 0.743292739995 0.0
0.259710736315 0.400598521943 0.0
0.460166928748 0.250997629117 0.0
0.754167505378 0.564214338636 0.0
0.198743709776 0.802377382729 0.0
0.799111550987 0.194032637949 0.0
0.791028860162 0.772527562736 0.0
0.230364737435 0.211087023207 0.0
0.849911840417 0.33304130599 0.0
0.670329725444 0.128985280001 0.0
0.327430461212 0.863211920434 0.0
0.137556900935 0.674106024204 0.0
0.475952098086 0.635849027645 0.0
0.563771506537 0.35138790053 0.0
0.417860954802 0.38850968325 0.0
0.624043380489 0.58878765485 0.0
0.676811528707 0.881626224811 0.0
0.119382205984 0.324701562599 0.0
0.499477403621 0.875545206197 0.0
0.125145363204 0.502340892645 0.0
0.356173071806 0.136463725213 0.0
0.86458982885 0.649662029712 0.0
0.510892420881 0.121252927061 0.0
0.861629451955 0.493444870528 0.0
0.36927770471 0.530399256436 0.0
0.696525662309 0.440530716967 0.0
0.0993447901452 0.901090998764 0.0
0.441406709056 0.762701017239 0.0
0.581742059105 0.226586591223 0.0
0.897700588047 0.100753177201 0.0
0.794085000981 0.0862858172192 0.0
0.907662709245 0.206407114513 0.0
0.198823890269 0.911472952869 0.0
0.0889606186385 0.801985594093 0.0
0.239085420518 0.561816033579 0.0
0.855414481676 0.889871222436 0.0
0.110848503591 0.145464251961 0.0
0.724516877288 0.667461540506 0.0
0.341295344971 0.279929037949 0.0

CELLS 106 424
3 25 31 37
3 25 38 31
3 24 41 51
3 26 52 35
3 24 42 52
3 35 52 50
3 26 32 36
3 26 35 32
3 24 51 39
3 27 43 33
3 28 34 44
3 27 33 64
3 28 65 34
3 17 35 16
3 20 21 36
3 24 52 40
3 28 51 41
3 10 11 37
3 7 38 6
3 30 52 42
3 14 48 33
3 23 34 47
3 12 13 43
3 5 44 4
3 15 50 48
3 22 47 49
3 22 23 47
3 15 48 14
3 27 64 42
3 28 41 65
3 24 39 42
3 33 43 62
3 34 63 44
3 1 53 8
3 1 9 53
3 27 42 39
3 5 46 44
3 12 43 45
3 24 40 41
3 25 37 54
3 29 41 40
3 10 37 59
3 7 60 38
3 20 36 57
3 17 58 35
3 25 61 38
3 32 57 36
3 32 35 58
3 28 44 46
3 27 45 43
3 15 16 50
3 22 49 21
3 31 59 37
3 31 38 60
3 30 50 52
3 29 49 47
3 30 48 50
3 13 62 43
3 4 44 63
3 14 33 62
3 23 63 34
3 21 49 36
3 16 35 50
3 5 6 46
3 12 45 11
3 3 56 18
3 3 19 56
3 28 61 51
3 28 46 61
3 25 39 51
3 11 45 37
3 6 38 46
3 26 40 52
3 26 36 55
3 25 54 39
3 37 45 54
3 26 55 40
3 7 8 60
3 10 59 9
3 27 39 54
3 2 62 13
3 0 4 63
3 29 40 55
3 2 14 62
3 0 63 23
3 20 57 19
3 17 18 58
3 36 49 55
3 27 54 45
3 38 61 46
3 29 55 49
3 8 53 60
3 9 59 53
3 29 47 65
3 30 64 48
3 29 65 41
3 30 42 64
3 25 51 61
3 34 65 47
3 33 48 64
3 31 53 59
3 31 60 53
3 19 57 56
3 18 56 58
3 32 56 57
3 32 58 56

CELL_TYPES 106
5 5 5 5 5 5 5 5 5 5 5 5 5 5 5 5 5 5 5 5 5 5 5 5 5 5 5 5 5 5 5 5 5 5 5 5 5 5 5 5 5 5 5 5 5 5 5 5 5 5 5 5 5 5 5 5 5 5 5 5 5 5 5 5 5 5 5 5 5 5 5 5 5 5 5 5 5 5 5 5 5 5 5 5 5 5 5 5 5 5 5 5 5 5 5 5 5 5 5 5 5 5 5 5 5 5 

POINT_DATA 66
