# vtk DataFile Version 1.0
2D Simulation C++
ASCII
DATASET UNSTRUCTURED_GRID
FIELD FieldData 1
NODES 1 2 int
73 120

POINTS 73 double
0.0 0.0 0.0
0.0 1.0 0.0
1.0 1.0 0.0
1.0 0.0 0.0
0.0 0.224003374577 0.0
0.0 0.448006749153 0.0
0.0 0.608711063862 0.0
0.0 0.769415378571 0.0
0.0 0.884707689285 0.0
0.115292325616 1.0 0.0
0.230584651232 1.0 0.0
0.391288936138 1.0 0.0
0.551993250847 1.0 0.0
0.775996625423 1.0 0.0
1.0 0.789787709713 0.0
1.0 0.579575359821 0.0
1.0 0.41641998291 0.0
1.0 0.253264576197 0.0
1.0 0.126632288098 0.0
0.873367726803 0.0 0.0
0.746735394001 0.0 0.0
0.583580076694 0.0 0.0
0.420424699783 0.0 0.0
0.210212349892 0.0 0.0
0.403681044614 0.596379793145 0.0
0.598862859248 0.401043963778 0.0
0.304760111895 0.309905675146 0.0
0.689746782088 0.695647193032 0.0
0.217520087488 0.782653312652 0.0
0.795432884266 0.204660793176 0.0
0.822543968666 0.423356856392 0.0
0.576798746651 0.177691649708 0.0
0.182809506649 0.578607322632 0.0
0.421085941403 0.816939440933 0.0
0.112310807784 0.887763166291 0.0
0.107256280906 0.776474544106 0.0
0.224044443284 0.892649837837 0.0
0.833708254953 0.840737016713 0.0
0.645003982118 0.86399806954 0.0
0.137613472075 0.35668979848 0.0
0.159466616567 0.166743492532 0.0
0.499522028526 0.500135975868 0.0
0.464077143698 0.365279426899 0.0
0.365139723356 0.465703060128 0.0
0.534038274103 0.635005715326 0.0
0.634245149171 0.535204315769 0.0
0.339355080101 0.13719623308 0.0
0.862751666257 0.660661156424 0.0
0.582023593929 0.280945949347 0.0
0.457800363159 0.23072349663 0.0
0.769111111453 0.542084875456 0.0
0.719352667687 0.418121336422 0.0
0.0947143835616 0.661176831147 0.0
0.103077509388 0.516402966101 0.0
0.483441831441 0.896124107039 0.0
0.34022592369 0.904576133885 0.0
0.234065924262 0.460577562899 0.0
0.285151367944 0.577222551576 0.0
0.422905581304 0.71488786212 0.0
0.537782533724 0.767594808222 0.0
0.893249648696 0.106760037753 0.0
0.902582536931 0.224068089237 0.0
0.775953936236 0.0974456647804 0.0
0.910128394111 0.350760091887 0.0
0.898145002397 0.49817617878 0.0
0.501844809566 0.101859368541 0.0
0.649264107078 0.0899056874741 0.0
0.310537644292 0.689711428434 0.0
0.322348929558 0.798663304288 0.0
0.201114486827 0.678308736552 0.0
0.683848751541 0.191090676039 0.0
0.809106418149 0.3163050057 0.0
0.698971702215 0.301398829877 0.0

CELLS 120 480
3 1 34 8
3 34 35 8
3 34 28 35
3 8 35 7
3 1 9 34
3 9 36 34
3 9 10 36
3 34 36 28
3 2 37 13
3 37 38 13
3 37 27 38
3 13 38 12
3 0 4 40
3 4 39 40
3 4 5 39
3 40 39 26
3 24 41 43
3 41 42 43
3 41 25 42
3 43 42 26
3 24 44 41
3 44 45 41
3 44 27 45
3 41 45 25
3 0 40 23
3 40 46 23
3 40 26 46
3 23 46 22
3 2 14 37
3 14 47 37
3 14 15 47
3 37 47 27
3 25 48 42
3 48 49 42
3 48 31 49
3 42 49 26
3 25 45 51
3 45 50 51
3 45 27 50
3 51 50 30
3 5 6 53
3 6 52 53
3 6 7 52
3 53 52 32
3 10 11 55
3 11 54 55
3 11 12 54
3 55 54 33
3 24 43 57
3 43 56 57
3 43 26 56
3 57 56 32
3 24 58 44
3 58 59 44
3 58 33 59
3 44 59 27
3 3 60 18
3 60 61 18
3 60 29 61
3 18 61 17
3 3 19 60
3 19 62 60
3 19 20 62
3 60 62 29
3 5 53 39
3 53 56 39
3 53 32 56
3 39 56 26
3 12 38 54
3 38 59 54
3 38 27 59
3 54 59 33
3 15 16 64
3 16 63 64
3 16 17 63
3 64 63 30
3 20 21 66
3 21 65 66
3 21 22 65
3 66 65 31
3 22 46 65
3 46 49 65
3 46 26 49
3 65 49 31
3 15 64 47
3 64 50 47
3 64 30 50
3 47 50 27
3 24 67 58
3 67 68 58
3 67 28 68
3 58 68 33
3 24 57 67
3 57 69 67
3 57 32 69
3 67 69 28
3 7 35 52
3 35 69 52
3 35 28 69
3 52 69 32
3 10 55 36
3 55 68 36
3 55 33 68
3 36 68 28
3 20 66 62
3 66 70 62
3 66 31 70
3 62 70 29
3 17 61 63
3 61 71 63
3 61 29 71
3 63 71 30
3 25 72 48
3 72 70 48
3 72 29 70
3 48 70 31
3 25 51 72
3 51 71 72
3 51 30 71
3 72 71 29

CELL_TYPES 120
5 5 5 5 5 5 5 5 5 5 5 5 5 5 5 5 5 5 5 5 5 5 5 5 5 5 5 5 5 5 5 5 5 5 5 5 5 5 5 5 5 5 5 5 5 5 5 5 5 5 5 5 5 5 5 5 5 5 5 5 5 5 5 5 5 5 5 5 5 5 5 5 5 5 5 5 5 5 5 5 5 5 5 5 5 5 5 5 5 5 5 5 5 5 5 5 5 5 5 5 5 5 5 5 5 5 5 5 5 5 5 5 5 5 5 5 5 5 5 5 

POINT_DATA 73
