# vtk DataFile Version 1.0
2D Simulation C++
ASCII
DATASET UNSTRUCTURED_GRID
FIELD FieldData 1
NODES 1 2 int
73 120

POINTS 73 double
0.0 0.0 0.0
0.0 1.0 0.0
1.0 1.0 0.0
1.0 0.0 0.0
0.0 0.224003374577 0.0
0.0 0.448006749153 0.0
0.0 0.608711063862 0.0
0.0 0.769415378571 0.0
0.0 0.884707689285 0.0
0.115292325616 1.0 0.0
0.230584651232 1.0 0.0
0.391288936138 1.0 0.0
0.551993250847 1.0 0.0
0.775996625423 1.0 0.0
1.0 0.789787709713 0.0
1.0 0.579575359821 0.0
1.0 0.41641998291 0.0
1.0 0.253264576197 0.0
1.0 0.126632288098 0.0
0.873367726803 0.0 0.0
0.746735394001 0.0 0.0
0.583580076694 0.0 0.0
0.420424699783 0.0 0.0
0.210212349892 0.0 0.0
0.403809159165 0.596241299052 0.0
0.598759141397 0.401139629067 0.0
0.304687882978 0.309607068184 0.0
0.690057700741 0.69571762072 0.0
0.216926522016 0.783250160133 0.0
0.795307846396 0.204788739476 0.0
0.822393269425 0.423791987416 0.0
0.576351911036 0.177826610173 0.0
0.182843121642 0.578386625175 0.0
0.421331884773 0.816927920585 0.0
0.112042775708 0.888037187048 0.0
0.106849283947 0.77669225508 0.0
0.223816719903 0.893062134095 0.0
0.833553060225 0.840528068049 0.0
0.645823043773 0.864422273266 0.0
0.137034480852 0.355658173853 0.0
0.159673560357 0.166875321768 0.0
0.499606758883 0.500065322494 0.0
0.463995883134 0.365121959316 0.0
0.365099295686 0.465427306712 0.0
0.534311821772 0.63505349322 0.0
0.634435899153 0.535374065024 0.0
0.338949925843 0.136920902904 0.0
0.863025301153 0.661072700759 0.0
0.581555490007 0.280909545747 0.0
0.457315221496 0.230710904891 0.0
0.769127258351 0.542592909026 0.0
0.719359677084 0.418570881941 0.0
0.0948039781009 0.660575891036 0.0
0.103457024746 0.516147831974 0.0
0.483753399659 0.895880874833 0.0
0.340669052809 0.904554440958 0.0
0.233748282443 0.46044594351 0.0
0.285160183039 0.577065067534 0.0
0.423031058509 0.71488761686 0.0
0.538136551225 0.767757047774 0.0
0.893174704142 0.106836277943 0.0
0.902498811935 0.224269076469 0.0
0.775754672684 0.0975324269503 0.0
0.909962077293 0.351252648317 0.0
0.897850582464 0.498491941917 0.0
0.501532244523 0.102153110672 0.0
0.648772706727 0.0900774327432 0.0
0.310457534095 0.68977455799 0.0
0.322258431397 0.798826410294 0.0
0.200968056108 0.678351814406 0.0
0.683533241153 0.191252836718 0.0
0.808942677052 0.316616986238 0.0
0.698765819833 0.301579355954 0.0

CELLS 120 480
3 1 34 8
3 34 35 8
3 34 28 35
3 8 35 7
3 1 9 34
3 9 36 34
3 9 10 36
3 34 36 28
3 2 37 13
3 37 38 13
3 37 27 38
3 13 38 12
3 0 4 40
3 4 39 40
3 4 5 39
3 40 39 26
3 24 41 43
3 41 42 43
3 41 25 42
3 43 42 26
3 24 44 41
3 44 45 41
3 44 27 45
3 41 45 25
3 0 40 23
3 40 46 23
3 40 26 46
3 23 46 22
3 2 14 37
3 14 47 37
3 14 15 47
3 37 47 27
3 25 48 42
3 48 49 42
3 48 31 49
3 42 49 26
3 25 45 51
3 45 50 51
3 45 27 50
3 51 50 30
3 5 6 53
3 6 52 53
3 6 7 52
3 53 52 32
3 10 11 55
3 11 54 55
3 11 12 54
3 55 54 33
3 24 43 57
3 43 56 57
3 43 26 56
3 57 56 32
3 24 58 44
3 58 59 44
3 58 33 59
3 44 59 27
3 3 60 18
3 60 61 18
3 60 29 61
3 18 61 17
3 3 19 60
3 19 62 60
3 19 20 62
3 60 62 29
3 5 53 39
3 53 56 39
3 53 32 56
3 39 56 26
3 12 38 54
3 38 59 54
3 38 27 59
3 54 59 33
3 15 16 64
3 16 63 64
3 16 17 63
3 64 63 30
3 20 21 66
3 21 65 66
3 21 22 65
3 66 65 31
3 22 46 65
3 46 49 65
3 46 26 49
3 65 49 31
3 15 64 47
3 64 50 47
3 64 30 50
3 47 50 27
3 24 67 58
3 67 68 58
3 67 28 68
3 58 68 33
3 24 57 67
3 57 69 67
3 57 32 69
3 67 69 28
3 7 35 52
3 35 69 52
3 35 28 69
3 52 69 32
3 10 55 36
3 55 68 36
3 55 33 68
3 36 68 28
3 20 66 62
3 66 70 62
3 66 31 70
3 62 70 29
3 17 61 63
3 61 71 63
3 61 29 71
3 63 71 30
3 25 72 48
3 72 70 48
3 72 29 70
3 48 70 31
3 25 51 72
3 51 71 72
3 51 30 71
3 72 71 29

CELL_TYPES 120
5 5 5 5 5 5 5 5 5 5 5 5 5 5 5 5 5 5 5 5 5 5 5 5 5 5 5 5 5 5 5 5 5 5 5 5 5 5 5 5 5 5 5 5 5 5 5 5 5 5 5 5 5 5 5 5 5 5 5 5 5 5 5 5 5 5 5 5 5 5 5 5 5 5 5 5 5 5 5 5 5 5 5 5 5 5 5 5 5 5 5 5 5 5 5 5 5 5 5 5 5 5 5 5 5 5 5 5 5 5 5 5 5 5 5 5 5 5 5 5 

POINT_DATA 73
