# vtk DataFile Version 1.0
2D Simulation C++
ASCII
DATASET UNSTRUCTURED_GRID
FIELD FieldData 1
NODES 1 2 int
66 106

POINTS 66 double
0.0 0.0 0.0
0.0 1.0 0.0
1.0 1.0 0.0
1.0 0.0 0.0
0.0 0.224003374577 0.0
0.0 0.448006749153 0.0
0.0 0.608711063862 0.0
0.0 0.769415378571 0.0
0.0 0.884707689285 0.0
0.115292325616 1.0 0.0
0.230584651232 1.0 0.0
0.391288936138 1.0 0.0
0.551993250847 1.0 0.0
0.775996625423 1.0 0.0
1.0 0.789787709713 0.0
1.0 0.579575359821 0.0
1.0 0.41641998291 0.0
1.0 0.253264576197 0.0
1.0 0.126632288098 0.0
0.873367726803 0.0 0.0
0.746735394001 0.0 0.0
0.583580076694 0.0 0.0
0.420424699783 0.0 0.0
0.210212349892 0.0 0.0
0.526735666996 0.488943391974 0.0
0.312910974586 0.689945672191 0.0
0.696735331489 0.282741909484 0.0
0.605348355316 0.743064067955 0.0
0.260950559552 0.398664090663 0.0
0.460685191458 0.249851294068 0.0
0.755582349844 0.564517918345 0.0
0.200210755984 0.800931675527 0.0
0.798888815239 0.194301706548 0.0
0.792060691754 0.772804439164 0.0
0.230728166784 0.209945733477 0.0
0.85013476573 0.333260513677 0.0
0.670166574093 0.128963882464 0.0
0.328721035534 0.862270442072 0.0
0.138781105445 0.672672936979 0.0
0.478365053445 0.634620705517 0.0
0.564712768626 0.350614306532 0.0
0.419262153835 0.386800990363 0.0
0.6260829264 0.588571474073 0.0
0.677620875377 0.881726259514 0.0
0.119771389194 0.323745371971 0.0
0.500620017735 0.875231876521 0.0
0.125979240545 0.500992414717 0.0
0.356360124321 0.135605528487 0.0
0.8654477663 0.649978229837 0.0
0.510893045408 0.120766850525 0.0
0.862254474477 0.493735133177 0.0
0.371444241455 0.528369184577 0.0
0.697668584912 0.440490965768 0.0
0.100027432212 0.900373682744 0.0
0.443487240624 0.761658837056 0.0
0.581884321038 0.226100676189 0.0
0.897488960279 0.100948904704 0.0
0.793843482124 0.086448751742 0.0
0.907524386405 0.206634226278 0.0
0.199686229007 0.910710933447 0.0
0.0897785834672 0.80101116028 0.0
0.24089725404 0.559653192262 0.0
0.855841561701 0.890066303626 0.0
0.110883374345 0.144972900205 0.0
0.726169985156 0.667727930186 0.0
0.34205859116 0.278281318932 0.0

CELLS 106 424
3 25 31 37
3 25 38 31
3 24 41 51
3 26 52 35
3 24 42 52
3 35 52 50
3 26 32 36
3 26 35 32
3 24 51 39
3 27 43 33
3 28 34 44
3 27 33 64
3 28 65 34
3 17 35 16
3 20 21 36
3 24 52 40
3 28 51 41
3 10 11 37
3 7 38 6
3 30 52 42
3 14 48 33
3 23 34 47
3 12 13 43
3 5 44 4
3 15 50 48
3 22 47 49
3 22 23 47
3 15 48 14
3 27 64 42
3 28 41 65
3 24 39 42
3 33 43 62
3 34 63 44
3 1 53 8
3 1 9 53
3 27 42 39
3 5 46 44
3 12 43 45
3 24 40 41
3 25 37 54
3 29 41 40
3 10 37 59
3 7 60 38
3 20 36 57
3 17 58 35
3 25 61 38
3 32 57 36
3 32 35 58
3 28 44 46
3 27 45 43
3 15 16 50
3 22 49 21
3 31 59 37
3 31 38 60
3 30 50 52
3 29 49 47
3 30 48 50
3 13 62 43
3 4 44 63
3 14 33 62
3 23 63 34
3 21 49 36
3 16 35 50
3 5 6 46
3 12 45 11
3 3 56 18
3 3 19 56
3 28 61 51
3 28 46 61
3 25 39 51
3 11 45 37
3 6 38 46
3 26 40 52
3 26 36 55
3 25 54 39
3 37 45 54
3 26 55 40
3 7 8 60
3 10 59 9
3 27 39 54
3 2 62 13
3 0 4 63
3 29 40 55
3 2 14 62
3 0 63 23
3 20 57 19
3 17 18 58
3 36 49 55
3 27 54 45
3 38 61 46
3 29 55 49
3 8 53 60
3 9 59 53
3 29 47 65
3 30 64 48
3 29 65 41
3 30 42 64
3 25 51 61
3 34 65 47
3 33 48 64
3 31 53 59
3 31 60 53
3 19 57 56
3 18 56 58
3 32 56 57
3 32 58 56

CELL_TYPES 106
5 5 5 5 5 5 5 5 5 5 5 5 5 5 5 5 5 5 5 5 5 5 5 5 5 5 5 5 5 5 5 5 5 5 5 5 5 5 5 5 5 5 5 5 5 5 5 5 5 5 5 5 5 5 5 5 5 5 5 5 5 5 5 5 5 5 5 5 5 5 5 5 5 5 5 5 5 5 5 5 5 5 5 5 5 5 5 5 5 5 5 5 5 5 5 5 5 5 5 5 5 5 5 5 5 5 

POINT_DATA 66
