# vtk DataFile Version 1.0
2D Simulation C++
ASCII
DATASET UNSTRUCTURED_GRID
FIELD FieldData 1
NODES 1 2 int
66 106

POINTS 66 double
0.0 0.0 0.0
0.0 1.0 0.0
1.0 1.0 0.0
1.0 0.0 0.0
0.0 0.224003374577 0.0
0.0 0.448006749153 0.0
0.0 0.608711063862 0.0
0.0 0.769415378571 0.0
0.0 0.884707689285 0.0
0.115292325616 1.0 0.0
0.230584651232 1.0 0.0
0.391288936138 1.0 0.0
0.551993250847 1.0 0.0
0.775996625423 1.0 0.0
1.0 0.789787709713 0.0
1.0 0.579575359821 0.0
1.0 0.41641998291 0.0
1.0 0.253264576197 0.0
1.0 0.126632288098 0.0
0.873367726803 0.0 0.0
0.746735394001 0.0 0.0
0.583580076694 0.0 0.0
0.420424699783 0.0 0.0
0.210212349892 0.0 0.0
0.530683563595 0.486526587901 0.0
0.316878604957 0.686692298674 0.0
0.69795813866 0.28212532548 0.0
0.608815501484 0.742173512828 0.0
0.263615236271 0.395388148254 0.0
0.462399609093 0.247525629943 0.0
0.758545168594 0.564348831518 0.0
0.202885587291 0.79846373667 0.0
0.799142990597 0.194314890705 0.0
0.794021336621 0.772920017941 0.0
0.23181170586 0.208023727722 0.0
0.85100750288 0.333182533594 0.0
0.67046925623 0.128601099186 0.0
0.331082110817 0.86055625506 0.0
0.14104352124 0.670326078129 0.0
0.482933843048 0.632056084796 0.0
0.567183338232 0.348693320937 0.0
0.422400327584 0.383538802367 0.0
0.630130428015 0.58751995322 0.0
0.679121487256 0.881650056201 0.0
0.120763837674 0.322209518713 0.0
0.502724109979 0.87444972136 0.0
0.127690179047 0.498823686659 0.0
0.357159268833 0.134016105375 0.0
0.8671961195 0.65012475931 0.0
0.511450548486 0.119703305653 0.0
0.863714372258 0.493767668164 0.0
0.375674554358 0.524694982662 0.0
0.700301035982 0.439734491793 0.0
0.101260942315 0.899152546015 0.0
0.447322018289 0.759542218889 0.0
0.583009815134 0.224792192636 0.0
0.897437507292 0.101054940921 0.0
0.79383075794 0.0864856706646 0.0
0.907650922174 0.206718207153 0.0
0.201253367704 0.909384435337 0.0
0.0912590187096 0.799401479038 0.0
0.244373780083 0.556052214818 0.0
0.856626004451 0.890276221705 0.0
0.111146493612 0.144202156642 0.0
0.729412902671 0.667568854332 0.0
0.344074210095 0.275324135292 0.0

CELLS 106 424
3 25 31 37
3 25 38 31
3 24 41 51
3 26 52 35
3 24 42 52
3 35 52 50
3 26 32 36
3 26 35 32
3 24 51 39
3 27 43 33
3 28 34 44
3 27 33 64
3 28 65 34
3 17 35 16
3 20 21 36
3 24 52 40
3 28 51 41
3 10 11 37
3 7 38 6
3 30 52 42
3 14 48 33
3 23 34 47
3 12 13 43
3 5 44 4
3 15 50 48
3 22 47 49
3 22 23 47
3 15 48 14
3 27 64 42
3 28 41 65
3 24 39 42
3 33 43 62
3 34 63 44
3 1 53 8
3 1 9 53
3 27 42 39
3 5 46 44
3 12 43 45
3 24 40 41
3 25 37 54
3 29 41 40
3 10 37 59
3 7 60 38
3 20 36 57
3 17 58 35
3 25 61 38
3 32 57 36
3 32 35 58
3 28 44 46
3 27 45 43
3 15 16 50
3 22 49 21
3 31 59 37
3 31 38 60
3 30 50 52
3 29 49 47
3 30 48 50
3 13 62 43
3 4 44 63
3 14 33 62
3 23 63 34
3 21 49 36
3 16 35 50
3 5 6 46
3 12 45 11
3 3 56 18
3 3 19 56
3 28 61 51
3 28 46 61
3 25 39 51
3 11 45 37
3 6 38 46
3 26 40 52
3 26 36 55
3 25 54 39
3 37 45 54
3 26 55 40
3 7 8 60
3 10 59 9
3 27 39 54
3 2 62 13
3 0 4 63
3 29 40 55
3 2 14 62
3 0 63 23
3 20 57 19
3 17 18 58
3 36 49 55
3 27 54 45
3 38 61 46
3 29 55 49
3 8 53 60
3 9 59 53
3 29 47 65
3 30 64 48
3 29 65 41
3 30 42 64
3 25 51 61
3 34 65 47
3 33 48 64
3 31 53 59
3 31 60 53
3 19 57 56
3 18 56 58
3 32 56 57
3 32 58 56

CELL_TYPES 106
5 5 5 5 5 5 5 5 5 5 5 5 5 5 5 5 5 5 5 5 5 5 5 5 5 5 5 5 5 5 5 5 5 5 5 5 5 5 5 5 5 5 5 5 5 5 5 5 5 5 5 5 5 5 5 5 5 5 5 5 5 5 5 5 5 5 5 5 5 5 5 5 5 5 5 5 5 5 5 5 5 5 5 5 5 5 5 5 5 5 5 5 5 5 5 5 5 5 5 5 5 5 5 5 5 5 

POINT_DATA 66
