# vtk DataFile Version 1.0
2D Simulation C++
ASCII
DATASET UNSTRUCTURED_GRID
FIELD FieldData 1
NODES 1 2 int
73 120

POINTS 73 double
0.0 0.0 0.0
0.0 1.0 0.0
1.0 1.0 0.0
1.0 0.0 0.0
0.0 0.224003374577 0.0
0.0 0.448006749153 0.0
0.0 0.608711063862 0.0
0.0 0.769415378571 0.0
0.0 0.884707689285 0.0
0.115292325616 1.0 0.0
0.230584651232 1.0 0.0
0.391288936138 1.0 0.0
0.551993250847 1.0 0.0
0.775996625423 1.0 0.0
1.0 0.789787709713 0.0
1.0 0.579575359821 0.0
1.0 0.41641998291 0.0
1.0 0.253264576197 0.0
1.0 0.126632288098 0.0
0.873367726803 0.0 0.0
0.746735394001 0.0 0.0
0.583580076694 0.0 0.0
0.420424699783 0.0 0.0
0.210212349892 0.0 0.0
0.4049331987 0.595058293048 0.0
0.597536490796 0.402394495745 0.0
0.302823451286 0.306475508886 0.0
0.693373635843 0.697435813067 0.0
0.212094871109 0.788049021121 0.0
0.793262935425 0.20682957633 0.0
0.820723444437 0.429169941687 0.0
0.570910280327 0.17935269689 0.0
0.183054504658 0.575651943571 0.0
0.424337135157 0.816945116065 0.0
0.109300743625 0.890797029694 0.0
0.103363470935 0.777970522891 0.0
0.222292258954 0.896634693329 0.0
0.833938498353 0.840055694582 0.0
0.652053668442 0.867443012661 0.0
0.132973581613 0.34819705764 0.0
0.160075271299 0.166187924276 0.0
0.500376462816 0.49948577802 0.0
0.462265373024 0.363604478531 0.0
0.364353741059 0.462568573088 0.0
0.537265406206 0.635780258786 0.0
0.636206013273 0.537674889589 0.0
0.33545170917 0.134686122683 0.0
0.865262318986 0.664616881949 0.0
0.57667142998 0.281030159251 0.0
0.452075474274 0.230202100592 0.0
0.769692501388 0.547985225602 0.0
0.719021596416 0.423385091747 0.0
0.0951155959538 0.65626814894 0.0
0.105336392329 0.512456829956 0.0
0.487634731419 0.894711748965 0.0
0.344021986096 0.904759120819 0.0
0.231156887408 0.457188288953 0.0
0.284840606821 0.575307177629 0.0
0.424684798122 0.715237151649 0.0
0.542626310228 0.76929688219 0.0
0.892112669035 0.107911007548 0.0
0.901345963391 0.226812378387 0.0
0.773223427587 0.0987043458773 0.0
0.908223309544 0.355809912414 0.0
0.89590062848 0.502317931671 0.0
0.497731449291 0.104090517406 0.0
0.644224357864 0.0918306341126 0.0
0.309315876931 0.690773007078 0.0
0.321509095558 0.800775441618 0.0
0.199191363974 0.678713823594 0.0
0.679473142866 0.193115346494 0.0
0.807010629075 0.320625664909 0.0
0.696098894669 0.304034414066 0.0

CELLS 120 480
3 1 34 8
3 34 35 8
3 34 28 35
3 8 35 7
3 1 9 34
3 9 36 34
3 9 10 36
3 34 36 28
3 2 37 13
3 37 38 13
3 37 27 38
3 13 38 12
3 0 4 40
3 4 39 40
3 4 5 39
3 40 39 26
3 24 41 43
3 41 42 43
3 41 25 42
3 43 42 26
3 24 44 41
3 44 45 41
3 44 27 45
3 41 45 25
3 0 40 23
3 40 46 23
3 40 26 46
3 23 46 22
3 2 14 37
3 14 47 37
3 14 15 47
3 37 47 27
3 25 48 42
3 48 49 42
3 48 31 49
3 42 49 26
3 25 45 51
3 45 50 51
3 45 27 50
3 51 50 30
3 5 6 53
3 6 52 53
3 6 7 52
3 53 52 32
3 10 11 55
3 11 54 55
3 11 12 54
3 55 54 33
3 24 43 57
3 43 56 57
3 43 26 56
3 57 56 32
3 24 58 44
3 58 59 44
3 58 33 59
3 44 59 27
3 3 60 18
3 60 61 18
3 60 29 61
3 18 61 17
3 3 19 60
3 19 62 60
3 19 20 62
3 60 62 29
3 5 53 39
3 53 56 39
3 53 32 56
3 39 56 26
3 12 38 54
3 38 59 54
3 38 27 59
3 54 59 33
3 15 16 64
3 16 63 64
3 16 17 63
3 64 63 30
3 20 21 66
3 21 65 66
3 21 22 65
3 66 65 31
3 22 46 65
3 46 49 65
3 46 26 49
3 65 49 31
3 15 64 47
3 64 50 47
3 64 30 50
3 47 50 27
3 24 67 58
3 67 68 58
3 67 28 68
3 58 68 33
3 24 57 67
3 57 69 67
3 57 32 69
3 67 69 28
3 7 35 52
3 35 69 52
3 35 28 69
3 52 69 32
3 10 55 36
3 55 68 36
3 55 33 68
3 36 68 28
3 20 66 62
3 66 70 62
3 66 31 70
3 62 70 29
3 17 61 63
3 61 71 63
3 61 29 71
3 63 71 30
3 25 72 48
3 72 70 48
3 72 29 70
3 48 70 31
3 25 51 72
3 51 71 72
3 51 30 71
3 72 71 29

CELL_TYPES 120
5 5 5 5 5 5 5 5 5 5 5 5 5 5 5 5 5 5 5 5 5 5 5 5 5 5 5 5 5 5 5 5 5 5 5 5 5 5 5 5 5 5 5 5 5 5 5 5 5 5 5 5 5 5 5 5 5 5 5 5 5 5 5 5 5 5 5 5 5 5 5 5 5 5 5 5 5 5 5 5 5 5 5 5 5 5 5 5 5 5 5 5 5 5 5 5 5 5 5 5 5 5 5 5 5 5 5 5 5 5 5 5 5 5 5 5 5 5 5 5 

POINT_DATA 73
