# vtk DataFile Version 1.0
2D Simulation C++
ASCII
DATASET UNSTRUCTURED_GRID
FIELD FieldData 1
NODES 1 2 int
66 106

POINTS 66 double
0.0 0.0 0.0
0.0 1.0 0.0
1.0 1.0 0.0
1.0 0.0 0.0
0.0 0.224003374577 0.0
0.0 0.448006749153 0.0
0.0 0.608711063862 0.0
0.0 0.769415378571 0.0
0.0 0.884707689285 0.0
0.115292325616 1.0 0.0
0.230584651232 1.0 0.0
0.391288936138 1.0 0.0
0.551993250847 1.0 0.0
0.775996625423 1.0 0.0
1.0 0.789787709713 0.0
1.0 0.579575359821 0.0
1.0 0.41641998291 0.0
1.0 0.253264576197 0.0
1.0 0.126632288098 0.0
0.873367726803 0.0 0.0
0.746735394001 0.0 0.0
0.583580076694 0.0 0.0
0.420424699783 0.0 0.0
0.210212349892 0.0 0.0
0.530214399223 0.486825759892 0.0
0.316441127622 0.687037914765 0.0
0.697761431887 0.282240958196 0.0
0.608430444576 0.742308908826 0.0
0.263292128697 0.395726957322 0.0
0.462151084453 0.24779622992 0.0
0.758194500081 0.564425573611 0.0
0.202595981319 0.798717353001 0.0
0.799064629904 0.194351853257 0.0
0.793803724849 0.772940306617 0.0
0.231661900613 0.208220255335 0.0
0.850876281646 0.333228057911 0.0
0.670390428267 0.128668015233 0.0
0.330825248369 0.860740893758 0.0
0.14079510104 0.670562510462 0.0
0.482420949532 0.63236069383 0.0
0.566851567395 0.348943235986 0.0
0.422008244591 0.383904563794 0.0
0.629663735891 0.58768819003 0.0
0.678957773073 0.881679695216 0.0
0.120635450142 0.32236136231 0.0
0.502494024076 0.874550661602 0.0
0.127490026979 0.499040111029 0.0
0.357037120612 0.134189584564 0.0
0.866993456719 0.650143249939 0.0
0.511347587088 0.119833420046 0.0
0.863531237023 0.493802300534 0.0
0.375187961446 0.525093804032 0.0
0.699969970674 0.439871676735 0.0
0.101128791063 0.899276635682 0.0
0.446901105799 0.759787995588 0.0
0.58281921644 0.224969780575 0.0
0.897417484623 0.101063028384 0.0
0.793799496698 0.0865031232323 0.0
0.907608273242 0.20673426354 0.0
0.201084355344 0.909521436454 0.0
0.0910997061868 0.799562969674 0.0
0.243980701013 0.556421173762 0.0
0.856541987639 0.89026597393 0.0
0.111103668332 0.144275962097 0.0
0.729044464984 0.667640024542 0.0
0.343804289665 0.275640964784 0.0

CELLS 106 424
3 25 31 37
3 25 38 31
3 24 41 51
3 26 52 35
3 24 42 52
3 35 52 50
3 26 32 36
3 26 35 32
3 24 51 39
3 27 43 33
3 28 34 44
3 27 33 64
3 28 65 34
3 17 35 16
3 20 21 36
3 24 52 40
3 28 51 41
3 10 11 37
3 7 38 6
3 30 52 42
3 14 48 33
3 23 34 47
3 12 13 43
3 5 44 4
3 15 50 48
3 22 47 49
3 22 23 47
3 15 48 14
3 27 64 42
3 28 41 65
3 24 39 42
3 33 43 62
3 34 63 44
3 1 53 8
3 1 9 53
3 27 42 39
3 5 46 44
3 12 43 45
3 24 40 41
3 25 37 54
3 29 41 40
3 10 37 59
3 7 60 38
3 20 36 57
3 17 58 35
3 25 61 38
3 32 57 36
3 32 35 58
3 28 44 46
3 27 45 43
3 15 16 50
3 22 49 21
3 31 59 37
3 31 38 60
3 30 50 52
3 29 49 47
3 30 48 50
3 13 62 43
3 4 44 63
3 14 33 62
3 23 63 34
3 21 49 36
3 16 35 50
3 5 6 46
3 12 45 11
3 3 56 18
3 3 19 56
3 28 61 51
3 28 46 61
3 25 39 51
3 11 45 37
3 6 38 46
3 26 40 52
3 26 36 55
3 25 54 39
3 37 45 54
3 26 55 40
3 7 8 60
3 10 59 9
3 27 39 54
3 2 62 13
3 0 4 63
3 29 40 55
3 2 14 62
3 0 63 23
3 20 57 19
3 17 18 58
3 36 49 55
3 27 54 45
3 38 61 46
3 29 55 49
3 8 53 60
3 9 59 53
3 29 47 65
3 30 64 48
3 29 65 41
3 30 42 64
3 25 51 61
3 34 65 47
3 33 48 64
3 31 53 59
3 31 60 53
3 19 57 56
3 18 56 58
3 32 56 57
3 32 58 56

CELL_TYPES 106
5 5 5 5 5 5 5 5 5 5 5 5 5 5 5 5 5 5 5 5 5 5 5 5 5 5 5 5 5 5 5 5 5 5 5 5 5 5 5 5 5 5 5 5 5 5 5 5 5 5 5 5 5 5 5 5 5 5 5 5 5 5 5 5 5 5 5 5 5 5 5 5 5 5 5 5 5 5 5 5 5 5 5 5 5 5 5 5 5 5 5 5 5 5 5 5 5 5 5 5 5 5 5 5 5 5 

POINT_DATA 66
