# vtk DataFile Version 1.0
2D Simulation C++
ASCII
DATASET UNSTRUCTURED_GRID
FIELD FieldData 1
NODES 1 2 int
66 106

POINTS 66 double
0.0 0.0 0.0
0.0 1.0 0.0
1.0 1.0 0.0
1.0 0.0 0.0
0.0 0.224003374577 0.0
0.0 0.448006749153 0.0
0.0 0.608711063862 0.0
0.0 0.769415378571 0.0
0.0 0.884707689285 0.0
0.115292325616 1.0 0.0
0.230584651232 1.0 0.0
0.391288936138 1.0 0.0
0.551993250847 1.0 0.0
0.775996625423 1.0 0.0
1.0 0.789787709713 0.0
1.0 0.579575359821 0.0
1.0 0.41641998291 0.0
1.0 0.253264576197 0.0
1.0 0.126632288098 0.0
0.873367726803 0.0 0.0
0.746735394001 0.0 0.0
0.583580076694 0.0 0.0
0.420424699783 0.0 0.0
0.210212349892 0.0 0.0
0.527066244416 0.488750882987 0.0
0.313266911563 0.689644195134 0.0
0.696799076675 0.282721192807 0.0
0.605656729931 0.743011411948 0.0
0.2611682304 0.398353030718 0.0
0.460795280833 0.249653704413 0.0
0.755829380351 0.56454527467 0.0
0.200453882269 0.800697350503 0.0
0.798873656106 0.19433105017 0.0
0.792234517154 0.772838431342 0.0
0.230802294769 0.20976202583 0.0
0.85018684705 0.333281053604 0.0
0.670159382882 0.12895060099 0.0
0.32893491149 0.862114183511 0.0
0.138984639695 0.67244523336 0.0
0.478768667858 0.634407040518 0.0
0.56489157969 0.350470085295 0.0
0.41951110108 0.386513326911 0.0
0.626430725669 0.588515288771 0.0
0.677756050309 0.881734782636 0.0
0.119845592475 0.323594229653 0.0
0.500809758531 0.875172962991 0.0
0.1261237546 0.500779926677 0.0
0.356406163811 0.135462293805 0.0
0.8655962572 0.650016797461 0.0
0.510911629131 0.120680906386 0.0
0.862368527119 0.493766668332 0.0
0.371810105808 0.528034732354 0.0
0.697874852282 0.440462628254 0.0
0.100140390324 0.900257101811 0.0
0.443832415096 0.761478903985 0.0
0.581935831459 0.226007369272 0.0
0.897464928698 0.100973123668 0.0
0.793817614002 0.0864676542781 0.0
0.907514016363 0.206660790307 0.0
0.199829035625 0.910586049167 0.0
0.0899138464629 0.80085516298 0.0
0.241202146966 0.559308082895 0.0
0.855913038456 0.890094205748 0.0
0.110896117712 0.14489547559 0.0
0.726451546163 0.66775230681 0.0
0.342204459115 0.2780098516 0.0

CELLS 106 424
3 25 31 37
3 25 38 31
3 24 41 51
3 26 52 35
3 24 42 52
3 35 52 50
3 26 32 36
3 26 35 32
3 24 51 39
3 27 43 33
3 28 34 44
3 27 33 64
3 28 65 34
3 17 35 16
3 20 21 36
3 24 52 40
3 28 51 41
3 10 11 37
3 7 38 6
3 30 52 42
3 14 48 33
3 23 34 47
3 12 13 43
3 5 44 4
3 15 50 48
3 22 47 49
3 22 23 47
3 15 48 14
3 27 64 42
3 28 41 65
3 24 39 42
3 33 43 62
3 34 63 44
3 1 53 8
3 1 9 53
3 27 42 39
3 5 46 44
3 12 43 45
3 24 40 41
3 25 37 54
3 29 41 40
3 10 37 59
3 7 60 38
3 20 36 57
3 17 58 35
3 25 61 38
3 32 57 36
3 32 35 58
3 28 44 46
3 27 45 43
3 15 16 50
3 22 49 21
3 31 59 37
3 31 38 60
3 30 50 52
3 29 49 47
3 30 48 50
3 13 62 43
3 4 44 63
3 14 33 62
3 23 63 34
3 21 49 36
3 16 35 50
3 5 6 46
3 12 45 11
3 3 56 18
3 3 19 56
3 28 61 51
3 28 46 61
3 25 39 51
3 11 45 37
3 6 38 46
3 26 40 52
3 26 36 55
3 25 54 39
3 37 45 54
3 26 55 40
3 7 8 60
3 10 59 9
3 27 39 54
3 2 62 13
3 0 4 63
3 29 40 55
3 2 14 62
3 0 63 23
3 20 57 19
3 17 18 58
3 36 49 55
3 27 54 45
3 38 61 46
3 29 55 49
3 8 53 60
3 9 59 53
3 29 47 65
3 30 64 48
3 29 65 41
3 30 42 64
3 25 51 61
3 34 65 47
3 33 48 64
3 31 53 59
3 31 60 53
3 19 57 56
3 18 56 58
3 32 56 57
3 32 58 56

CELL_TYPES 106
5 5 5 5 5 5 5 5 5 5 5 5 5 5 5 5 5 5 5 5 5 5 5 5 5 5 5 5 5 5 5 5 5 5 5 5 5 5 5 5 5 5 5 5 5 5 5 5 5 5 5 5 5 5 5 5 5 5 5 5 5 5 5 5 5 5 5 5 5 5 5 5 5 5 5 5 5 5 5 5 5 5 5 5 5 5 5 5 5 5 5 5 5 5 5 5 5 5 5 5 5 5 5 5 5 5 

POINT_DATA 66
