# vtk DataFile Version 1.0
2D Simulation C++
ASCII
DATASET UNSTRUCTURED_GRID
FIELD FieldData 1
NODES 1 2 int
73 120

POINTS 73 double
0.0 0.0 0.0
0.0 1.0 0.0
1.0 1.0 0.0
1.0 0.0 0.0
0.0 0.224003374577 0.0
0.0 0.448006749153 0.0
0.0 0.608711063862 0.0
0.0 0.769415378571 0.0
0.0 0.884707689285 0.0
0.115292325616 1.0 0.0
0.230584651232 1.0 0.0
0.391288936138 1.0 0.0
0.551993250847 1.0 0.0
0.775996625423 1.0 0.0
1.0 0.789787709713 0.0
1.0 0.579575359821 0.0
1.0 0.41641998291 0.0
1.0 0.253264576197 0.0
1.0 0.126632288098 0.0
0.873367726803 0.0 0.0
0.746735394001 0.0 0.0
0.583580076694 0.0 0.0
0.420424699783 0.0 0.0
0.210212349892 0.0 0.0
0.405372542672 0.594649123025 0.0
0.594938165732 0.405079073351 0.0
0.299092010062 0.303068279091 0.0
0.696910153574 0.700979815451 0.0
0.209664751145 0.7903893569 0.0
0.789288462868 0.21075266295 0.0
0.819199732422 0.436105723592 0.0
0.563948096765 0.180805461763 0.0
0.181888483771 0.572038325437 0.0
0.427995680788 0.81817358917 0.0
0.10764677531 0.892386264232 0.0
0.101252756277 0.778056662716 0.0
0.221989618448 0.898780322778 0.0
0.83608185968 0.841718547878 0.0
0.655933971102 0.869574914263 0.0
0.130487437219 0.344075253917 0.0
0.158317863796 0.16391618657 0.0
0.500094337411 0.499913890791 0.0
0.458394145065 0.362649293286 0.0
0.36238737289 0.459865036927 0.0
0.540121604004 0.6376684504 0.0
0.637328028539 0.541655775808 0.0
0.331991135563 0.132803670093 0.0
0.867180525691 0.668049069157 0.0
0.570538560194 0.282474068822 0.0
0.445887075509 0.229315928287 0.0
0.770660884407 0.554171326777 0.0
0.717531666161 0.429515540479 0.0
0.0943028686974 0.653775134336 0.0
0.1045482402 0.508677457808 0.0
0.491343702661 0.89550617548 0.0
0.346262807975 0.905730911669 0.0
0.228711022012 0.452567156575 0.0
0.283491004675 0.573053121385 0.0
0.426966432586 0.716563670576 0.0
0.547438825709 0.771372879123 0.0
0.890126559881 0.109891593734 0.0
0.899300925431 0.230307112875 0.0
0.769720725368 0.100722215315 0.0
0.906547373038 0.360238565855 0.0
0.895587043195 0.506713178509 0.0
0.493325320229 0.104405250727 0.0
0.639791518189 0.0934659710169 0.0
0.308395935355 0.691646934875 0.0
0.321924945003 0.802812445641 0.0
0.197235264001 0.678126321792 0.0
0.673516111437 0.195955874121 0.0
0.804074584272 0.326534469881 0.0
0.691702692773 0.308338454075 0.0

CELLS 120 480
3 1 34 8
3 34 35 8
3 34 28 35
3 8 35 7
3 1 9 34
3 9 36 34
3 9 10 36
3 34 36 28
3 2 37 13
3 37 38 13
3 37 27 38
3 13 38 12
3 0 4 40
3 4 39 40
3 4 5 39
3 40 39 26
3 24 41 43
3 41 42 43
3 41 25 42
3 43 42 26
3 24 44 41
3 44 45 41
3 44 27 45
3 41 45 25
3 0 40 23
3 40 46 23
3 40 26 46
3 23 46 22
3 2 14 37
3 14 47 37
3 14 15 47
3 37 47 27
3 25 48 42
3 48 49 42
3 48 31 49
3 42 49 26
3 25 45 51
3 45 50 51
3 45 27 50
3 51 50 30
3 5 6 53
3 6 52 53
3 6 7 52
3 53 52 32
3 10 11 55
3 11 54 55
3 11 12 54
3 55 54 33
3 24 43 57
3 43 56 57
3 43 26 56
3 57 56 32
3 24 58 44
3 58 59 44
3 58 33 59
3 44 59 27
3 3 60 18
3 60 61 18
3 60 29 61
3 18 61 17
3 3 19 60
3 19 62 60
3 19 20 62
3 60 62 29
3 5 53 39
3 53 56 39
3 53 32 56
3 39 56 26
3 12 38 54
3 38 59 54
3 38 27 59
3 54 59 33
3 15 16 64
3 16 63 64
3 16 17 63
3 64 63 30
3 20 21 66
3 21 65 66
3 21 22 65
3 66 65 31
3 22 46 65
3 46 49 65
3 46 26 49
3 65 49 31
3 15 64 47
3 64 50 47
3 64 30 50
3 47 50 27
3 24 67 58
3 67 68 58
3 67 28 68
3 58 68 33
3 24 57 67
3 57 69 67
3 57 32 69
3 67 69 28
3 7 35 52
3 35 69 52
3 35 28 69
3 52 69 32
3 10 55 36
3 55 68 36
3 55 33 68
3 36 68 28
3 20 66 62
3 66 70 62
3 66 31 70
3 62 70 29
3 17 61 63
3 61 71 63
3 61 29 71
3 63 71 30
3 25 72 48
3 72 70 48
3 72 29 70
3 48 70 31
3 25 51 72
3 51 71 72
3 51 30 71
3 72 71 29

CELL_TYPES 120
5 5 5 5 5 5 5 5 5 5 5 5 5 5 5 5 5 5 5 5 5 5 5 5 5 5 5 5 5 5 5 5 5 5 5 5 5 5 5 5 5 5 5 5 5 5 5 5 5 5 5 5 5 5 5 5 5 5 5 5 5 5 5 5 5 5 5 5 5 5 5 5 5 5 5 5 5 5 5 5 5 5 5 5 5 5 5 5 5 5 5 5 5 5 5 5 5 5 5 5 5 5 5 5 5 5 5 5 5 5 5 5 5 5 5 5 5 5 5 5 

POINT_DATA 73
