# vtk DataFile Version 1.0
2D Simulation C++
ASCII
DATASET UNSTRUCTURED_GRID
FIELD FieldData 1
NODES 1 2 int
73 120

POINTS 73 double
0.0 0.0 0.0
0.0 1.0 0.0
1.0 1.0 0.0
1.0 0.0 0.0
0.0 0.224003374577 0.0
0.0 0.448006749153 0.0
0.0 0.608711063862 0.0
0.0 0.769415378571 0.0
0.0 0.884707689285 0.0
0.115292325616 1.0 0.0
0.230584651232 1.0 0.0
0.391288936138 1.0 0.0
0.551993250847 1.0 0.0
0.775996625423 1.0 0.0
1.0 0.789787709713 0.0
1.0 0.579575359821 0.0
1.0 0.41641998291 0.0
1.0 0.253264576197 0.0
1.0 0.126632288098 0.0
0.873367726803 0.0 0.0
0.746735394001 0.0 0.0
0.583580076694 0.0 0.0
0.420424699783 0.0 0.0
0.210212349892 0.0 0.0
0.403399088844 0.596685558692 0.0
0.599089167457 0.400844673741 0.0
0.30484391118 0.310559536383 0.0
0.689075507771 0.695556232441 0.0
0.218876931692 0.781285098726 0.0
0.795664517822 0.204421030992 0.0
0.822848260489 0.422477891102 0.0
0.57770702966 0.177421749525 0.0
0.182754070581 0.579065501725 0.0
0.420583470822 0.816951523163 0.0
0.112863385725 0.887196494108 0.0
0.108172481302 0.775930673029 0.0
0.22459484672 0.891726219805 0.0
0.834196014909 0.841303714343 0.0
0.643071985651 0.862981469782 0.0
0.139001059857 0.359150316262 0.0
0.158899602917 0.166293001542 0.0
0.499342550478 0.500290700856 0.0
0.464203734147 0.365623485092 0.0
0.365213004991 0.466296894789 0.0
0.533458421669 0.634908950467 0.0
0.633821506113 0.534865494146 0.0
0.340292861515 0.137838999895 0.0
0.862113504592 0.659709894237 0.0
0.583040946773 0.28104877383 0.0
0.458834894768 0.230720152113 0.0
0.769107789852 0.54099706368 0.0
0.719317042487 0.417153775913 0.0
0.0944879115775 0.662614587892 0.0
0.102122619665 0.516844547389 0.0
0.482846209827 0.896735525844 0.0
0.339177137561 0.904647627381 0.0
0.234799772562 0.460707410482 0.0
0.285111244031 0.577562268271 0.0
0.422655285416 0.714904844773 0.0
0.537094590254 0.767233536573 0.0
0.893400611371 0.10660648621 0.0
0.902750050552 0.223666796161 0.0
0.776351374926 0.0972716235915 0.0
0.910481725091 0.349652908812 0.0
0.898843359426 0.497548193614 0.0
0.502465488834 0.101161796826 0.0
0.65036848518 0.0895384710578 0.0
0.310677370422 0.689607944806 0.0
0.322539017849 0.798335475053 0.0
0.201408132406 0.678223262377 0.0
0.684483586528 0.190744816168 0.0
0.809451929145 0.315675718478 0.0
0.699386770623 0.301039781233 0.0

CELLS 120 480
3 1 34 8
3 34 35 8
3 34 28 35
3 8 35 7
3 1 9 34
3 9 36 34
3 9 10 36
3 34 36 28
3 2 37 13
3 37 38 13
3 37 27 38
3 13 38 12
3 0 4 40
3 4 39 40
3 4 5 39
3 40 39 26
3 24 41 43
3 41 42 43
3 41 25 42
3 43 42 26
3 24 44 41
3 44 45 41
3 44 27 45
3 41 45 25
3 0 40 23
3 40 46 23
3 40 26 46
3 23 46 22
3 2 14 37
3 14 47 37
3 14 15 47
3 37 47 27
3 25 48 42
3 48 49 42
3 48 31 49
3 42 49 26
3 25 45 51
3 45 50 51
3 45 27 50
3 51 50 30
3 5 6 53
3 6 52 53
3 6 7 52
3 53 52 32
3 10 11 55
3 11 54 55
3 11 12 54
3 55 54 33
3 24 43 57
3 43 56 57
3 43 26 56
3 57 56 32
3 24 58 44
3 58 59 44
3 58 33 59
3 44 59 27
3 3 60 18
3 60 61 18
3 60 29 61
3 18 61 17
3 3 19 60
3 19 62 60
3 19 20 62
3 60 62 29
3 5 53 39
3 53 56 39
3 53 32 56
3 39 56 26
3 12 38 54
3 38 59 54
3 38 27 59
3 54 59 33
3 15 16 64
3 16 63 64
3 16 17 63
3 64 63 30
3 20 21 66
3 21 65 66
3 21 22 65
3 66 65 31
3 22 46 65
3 46 49 65
3 46 26 49
3 65 49 31
3 15 64 47
3 64 50 47
3 64 30 50
3 47 50 27
3 24 67 58
3 67 68 58
3 67 28 68
3 58 68 33
3 24 57 67
3 57 69 67
3 57 32 69
3 67 69 28
3 7 35 52
3 35 69 52
3 35 28 69
3 52 69 32
3 10 55 36
3 55 68 36
3 55 33 68
3 36 68 28
3 20 66 62
3 66 70 62
3 66 31 70
3 62 70 29
3 17 61 63
3 61 71 63
3 61 29 71
3 63 71 30
3 25 72 48
3 72 70 48
3 72 29 70
3 48 70 31
3 25 51 72
3 51 71 72
3 51 30 71
3 72 71 29

CELL_TYPES 120
5 5 5 5 5 5 5 5 5 5 5 5 5 5 5 5 5 5 5 5 5 5 5 5 5 5 5 5 5 5 5 5 5 5 5 5 5 5 5 5 5 5 5 5 5 5 5 5 5 5 5 5 5 5 5 5 5 5 5 5 5 5 5 5 5 5 5 5 5 5 5 5 5 5 5 5 5 5 5 5 5 5 5 5 5 5 5 5 5 5 5 5 5 5 5 5 5 5 5 5 5 5 5 5 5 5 5 5 5 5 5 5 5 5 5 5 5 5 5 5 

POINT_DATA 73
