# vtk DataFile Version 1.0
2D Simulation C++
ASCII
DATASET UNSTRUCTURED_GRID
FIELD FieldData 1
NODES 1 2 int
73 120

POINTS 73 double
0.0 0.0 0.0
0.0 1.0 0.0
1.0 1.0 0.0
1.0 0.0 0.0
0.0 0.224003374577 0.0
0.0 0.448006749153 0.0
0.0 0.608711063862 0.0
0.0 0.769415378571 0.0
0.0 0.884707689285 0.0
0.115292325616 1.0 0.0
0.230584651232 1.0 0.0
0.391288936138 1.0 0.0
0.551993250847 1.0 0.0
0.775996625423 1.0 0.0
1.0 0.789787709713 0.0
1.0 0.579575359821 0.0
1.0 0.41641998291 0.0
1.0 0.253264576197 0.0
1.0 0.126632288098 0.0
0.873367726803 0.0 0.0
0.746735394001 0.0 0.0
0.583580076694 0.0 0.0
0.420424699783 0.0 0.0
0.210212349892 0.0 0.0
0.404990077901 0.595035567533 0.0
0.59292784882 0.407095620531 0.0
0.29711625417 0.302224934053 0.0
0.697778131887 0.702914417709 0.0
0.209474712499 0.790550206724 0.0
0.787085618986 0.212934610101 0.0
0.81842811768 0.439100872722 0.0
0.560928678642 0.181578802852 0.0
0.180859920837 0.57084376692 0.0
0.429172647194 0.819173428689 0.0
0.107531269758 0.892480477853 0.0
0.100887880358 0.77780583477 0.0
0.222208965477 0.899129700209 0.0
0.83674040644 0.842662745198 0.0
0.656850756275 0.870631879749 0.0
0.129389229574 0.343153447136 0.0
0.157350975222 0.163260715075 0.0
0.499041139006 0.500981263419 0.0
0.456001527055 0.363043264151 0.0
0.360859966689 0.459449137273 0.0
0.540563900714 0.639172416504 0.0
0.636966077629 0.544031437005 0.0
0.330509289729 0.132279544425 0.0
0.867720320219 0.669508691458 0.0
0.567442616414 0.283801586162 0.0
0.443120495723 0.229294758329 0.0
0.77070789006 0.556910178698 0.0
0.716211708599 0.432590903638 0.0
0.0937594624931 0.653080463406 0.0
0.10374130942 0.507710391101 0.0
0.492297481079 0.896280724486 0.0
0.34693160389 0.906261206339 0.0
0.227281615673 0.451307575307 0.0
0.282506233875 0.572355281635 0.0
0.427664339078 0.717527721557 0.0
0.548702829257 0.772752800022 0.0
0.88904647249 0.110962547534 0.0
0.898160862873 0.231920956937 0.0
0.768093930556 0.101849080144 0.0
0.905836450952 0.362005887207 0.0
0.895564897346 0.508458478065 0.0
0.491560667531 0.104436098426 0.0
0.638010543638 0.0941694162318 0.0
0.308207882634 0.691821069928 0.0
0.322442396247 0.803470040746 0.0
0.196560383927 0.677580359484 0.0
0.670627885004 0.197626625262 0.0
0.80238853417 0.329399667785 0.0
0.68914024127 0.310884906268 0.0

CELLS 120 480
3 1 34 8
3 34 35 8
3 34 28 35
3 8 35 7
3 1 9 34
3 9 36 34
3 9 10 36
3 34 36 28
3 2 37 13
3 37 38 13
3 37 27 38
3 13 38 12
3 0 4 40
3 4 39 40
3 4 5 39
3 40 39 26
3 24 41 43
3 41 42 43
3 41 25 42
3 43 42 26
3 24 44 41
3 44 45 41
3 44 27 45
3 41 45 25
3 0 40 23
3 40 46 23
3 40 26 46
3 23 46 22
3 2 14 37
3 14 47 37
3 14 15 47
3 37 47 27
3 25 48 42
3 48 49 42
3 48 31 49
3 42 49 26
3 25 45 51
3 45 50 51
3 45 27 50
3 51 50 30
3 5 6 53
3 6 52 53
3 6 7 52
3 53 52 32
3 10 11 55
3 11 54 55
3 11 12 54
3 55 54 33
3 24 43 57
3 43 56 57
3 43 26 56
3 57 56 32
3 24 58 44
3 58 59 44
3 58 33 59
3 44 59 27
3 3 60 18
3 60 61 18
3 60 29 61
3 18 61 17
3 3 19 60
3 19 62 60
3 19 20 62
3 60 62 29
3 5 53 39
3 53 56 39
3 53 32 56
3 39 56 26
3 12 38 54
3 38 59 54
3 38 27 59
3 54 59 33
3 15 16 64
3 16 63 64
3 16 17 63
3 64 63 30
3 20 21 66
3 21 65 66
3 21 22 65
3 66 65 31
3 22 46 65
3 46 49 65
3 46 26 49
3 65 49 31
3 15 64 47
3 64 50 47
3 64 30 50
3 47 50 27
3 24 67 58
3 67 68 58
3 67 28 68
3 58 68 33
3 24 57 67
3 57 69 67
3 57 32 69
3 67 69 28
3 7 35 52
3 35 69 52
3 35 28 69
3 52 69 32
3 10 55 36
3 55 68 36
3 55 33 68
3 36 68 28
3 20 66 62
3 66 70 62
3 66 31 70
3 62 70 29
3 17 61 63
3 61 71 63
3 61 29 71
3 63 71 30
3 25 72 48
3 72 70 48
3 72 29 70
3 48 70 31
3 25 51 72
3 51 71 72
3 51 30 71
3 72 71 29

CELL_TYPES 120
5 5 5 5 5 5 5 5 5 5 5 5 5 5 5 5 5 5 5 5 5 5 5 5 5 5 5 5 5 5 5 5 5 5 5 5 5 5 5 5 5 5 5 5 5 5 5 5 5 5 5 5 5 5 5 5 5 5 5 5 5 5 5 5 5 5 5 5 5 5 5 5 5 5 5 5 5 5 5 5 5 5 5 5 5 5 5 5 5 5 5 5 5 5 5 5 5 5 5 5 5 5 5 5 5 5 5 5 5 5 5 5 5 5 5 5 5 5 5 5 

POINT_DATA 73
