# vtk DataFile Version 1.0
2D Simulation C++
ASCII
DATASET UNSTRUCTURED_GRID
FIELD FieldData 1
NODES 1 2 int
66 106

POINTS 66 double
0.0 0.0 0.0
0.0 1.0 0.0
1.0 1.0 0.0
1.0 0.0 0.0
0.0 0.224003374577 0.0
0.0 0.448006749153 0.0
0.0 0.608711063862 0.0
0.0 0.769415378571 0.0
0.0 0.884707689285 0.0
0.115292325616 1.0 0.0
0.230584651232 1.0 0.0
0.391288936138 1.0 0.0
0.551993250847 1.0 0.0
0.775996625423 1.0 0.0
1.0 0.789787709713 0.0
1.0 0.579575359821 0.0
1.0 0.41641998291 0.0
1.0 0.253264576197 0.0
1.0 0.126632288098 0.0
0.873367726803 0.0 0.0
0.746735394001 0.0 0.0
0.583580076694 0.0 0.0
0.420424699783 0.0 0.0
0.210212349892 0.0 0.0
0.52633961172 0.489171271561 0.0
0.312479423558 0.690313313052 0.0
0.696668438108 0.282759494925 0.0
0.604975251872 0.743121918393 0.0
0.260691373616 0.399045321487 0.0
0.460561437458 0.250088118593 0.0
0.755287471215 0.564475355815 0.0
0.199915578681 0.801218340686 0.0
0.79891595631 0.19425988543 0.0
0.791850761965 0.772758232638 0.0
0.230643734744 0.210170922777 0.0
0.850077640803 0.333229281327 0.0
0.670183257062 0.128975923966 0.0
0.328461430845 0.862460127387 0.0
0.138534312266 0.672953120268 0.0
0.477876879787 0.634875958 0.0
0.564505190048 0.350782847258 0.0
0.418967073917 0.387148395448 0.0
0.625664775605 0.588631268074 0.0
0.677457138615 0.881712602462 0.0
0.119685105856 0.323931737841 0.0
0.50038987877 0.875300614582 0.0
0.125806288452 0.501254523322 0.0
0.356310262686 0.135779060133 0.0
0.865269984907 0.649925811978 0.0
0.510877861799 0.120868944063 0.0
0.862120211161 0.493690272373 0.0
0.371003231661 0.528775831087 0.0
0.697425127578 0.440516516162 0.0
0.0998901836203 0.900516262173 0.0
0.443068525054 0.761874425874 0.0
0.581833086653 0.226208620054 0.0
0.89752257351 0.10091619912 0.0
0.79388056832 0.086422464958 0.0
0.907542003715 0.206597587011 0.0
0.199512801178 0.910863251241 0.0
0.0896142265079 0.801202770706 0.0
0.24052912416 0.560077118141 0.0
0.855754954558 0.890030596772 0.0
0.110870621076 0.145068565379 0.0
0.725831194721 0.667690124984 0.0
0.341889477658 0.278611547101 0.0

CELLS 106 424
3 25 31 37
3 25 38 31
3 24 41 51
3 26 52 35
3 24 42 52
3 35 52 50
3 26 32 36
3 26 35 32
3 24 51 39
3 27 43 33
3 28 34 44
3 27 33 64
3 28 65 34
3 17 35 16
3 20 21 36
3 24 52 40
3 28 51 41
3 10 11 37
3 7 38 6
3 30 52 42
3 14 48 33
3 23 34 47
3 12 13 43
3 5 44 4
3 15 50 48
3 22 47 49
3 22 23 47
3 15 48 14
3 27 64 42
3 28 41 65
3 24 39 42
3 33 43 62
3 34 63 44
3 1 53 8
3 1 9 53
3 27 42 39
3 5 46 44
3 12 43 45
3 24 40 41
3 25 37 54
3 29 41 40
3 10 37 59
3 7 60 38
3 20 36 57
3 17 58 35
3 25 61 38
3 32 57 36
3 32 35 58
3 28 44 46
3 27 45 43
3 15 16 50
3 22 49 21
3 31 59 37
3 31 38 60
3 30 50 52
3 29 49 47
3 30 48 50
3 13 62 43
3 4 44 63
3 14 33 62
3 23 63 34
3 21 49 36
3 16 35 50
3 5 6 46
3 12 45 11
3 3 56 18
3 3 19 56
3 28 61 51
3 28 46 61
3 25 39 51
3 11 45 37
3 6 38 46
3 26 40 52
3 26 36 55
3 25 54 39
3 37 45 54
3 26 55 40
3 7 8 60
3 10 59 9
3 27 39 54
3 2 62 13
3 0 4 63
3 29 40 55
3 2 14 62
3 0 63 23
3 20 57 19
3 17 18 58
3 36 49 55
3 27 54 45
3 38 61 46
3 29 55 49
3 8 53 60
3 9 59 53
3 29 47 65
3 30 64 48
3 29 65 41
3 30 42 64
3 25 51 61
3 34 65 47
3 33 48 64
3 31 53 59
3 31 60 53
3 19 57 56
3 18 56 58
3 32 56 57
3 32 58 56

CELL_TYPES 106
5 5 5 5 5 5 5 5 5 5 5 5 5 5 5 5 5 5 5 5 5 5 5 5 5 5 5 5 5 5 5 5 5 5 5 5 5 5 5 5 5 5 5 5 5 5 5 5 5 5 5 5 5 5 5 5 5 5 5 5 5 5 5 5 5 5 5 5 5 5 5 5 5 5 5 5 5 5 5 5 5 5 5 5 5 5 5 5 5 5 5 5 5 5 5 5 5 5 5 5 5 5 5 5 5 5 

POINT_DATA 66
