# vtk DataFile Version 1.0
2D Simulation C++
ASCII
DATASET UNSTRUCTURED_GRID
FIELD FieldData 1
NODES 1 2 int
73 120

POINTS 73 double
0.0 0.0 0.0
0.0 1.0 0.0
1.0 1.0 0.0
1.0 0.0 0.0
0.0 0.224003374577 0.0
0.0 0.448006749153 0.0
0.0 0.608711063862 0.0
0.0 0.769415378571 0.0
0.0 0.884707689285 0.0
0.115292325616 1.0 0.0
0.230584651232 1.0 0.0
0.391288936138 1.0 0.0
0.551993250847 1.0 0.0
0.775996625423 1.0 0.0
1.0 0.789787709713 0.0
1.0 0.579575359821 0.0
1.0 0.41641998291 0.0
1.0 0.253264576197 0.0
1.0 0.126632288098 0.0
0.873367726803 0.0 0.0
0.746735394001 0.0 0.0
0.583580076694 0.0 0.0
0.420424699783 0.0 0.0
0.210212349892 0.0 0.0
0.403914596888 0.596127619619 0.0
0.598672369864 0.401221671328 0.0
0.304611551472 0.309358579424 0.0
0.690318116832 0.695790153497 0.0
0.216447408517 0.783731041694 0.0
0.795194309227 0.204904269356 0.0
0.822263564267 0.424168801139 0.0
0.575966197143 0.1779432927 0.0
0.182873422464 0.578197279715 0.0
0.421543930893 0.81691679219 0.0
0.111814759456 0.888269829916 0.0
0.106517892893 0.776858722863 0.0
0.223638898952 0.893398740323 0.0
0.8334555351 0.840378512821 0.0
0.646472854173 0.864755257219 0.0
0.136580219985 0.354845648563 0.0
0.159820517375 0.166951046122 0.0
0.499677835269 0.500007084583 0.0
0.463916736642 0.364991364802 0.0
0.365062059517 0.465196519892 0.0
0.534542731635 0.63509527566 0.0
0.634592737971 0.535522416009 0.0
0.338624002517 0.136700948701 0.0
0.863244073224 0.661403926786 0.0
0.581165246064 0.280884914131 0.0
0.456906823447 0.2306941242 0.0
0.769147259964 0.543019480694 0.0
0.719360681238 0.418947658789 0.0
0.0948711361918 0.66010346855 0.0
0.10374446957 0.515913055876 0.0
0.484028623988 0.895696680588 0.0
0.341019958741 0.904541940037 0.0
0.23349334151 0.46030377205 0.0
0.285162619161 0.576932818507 0.0
0.423140652327 0.714891374898 0.0
0.538447937433 0.767890183669 0.0
0.893109220277 0.106902879396 0.0
0.902425644759 0.224444018646 0.0
0.775581125444 0.0976080919007 0.0
0.909822035249 0.35165531972 0.0
0.89761888678 0.498766521368 0.0
0.501260255403 0.10238410447 0.0
0.648370944018 0.0902214948958 0.0
0.310383959164 0.689834021192 0.0
0.322182592241 0.798967676335 0.0
0.200841021036 0.678388843673 0.0
0.683259036393 0.191389742439 0.0
0.808803621897 0.316887857296 0.0
0.698587077508 0.301737315238 0.0

CELLS 120 480
3 1 34 8
3 34 35 8
3 34 28 35
3 8 35 7
3 1 9 34
3 9 36 34
3 9 10 36
3 34 36 28
3 2 37 13
3 37 38 13
3 37 27 38
3 13 38 12
3 0 4 40
3 4 39 40
3 4 5 39
3 40 39 26
3 24 41 43
3 41 42 43
3 41 25 42
3 43 42 26
3 24 44 41
3 44 45 41
3 44 27 45
3 41 45 25
3 0 40 23
3 40 46 23
3 40 26 46
3 23 46 22
3 2 14 37
3 14 47 37
3 14 15 47
3 37 47 27
3 25 48 42
3 48 49 42
3 48 31 49
3 42 49 26
3 25 45 51
3 45 50 51
3 45 27 50
3 51 50 30
3 5 6 53
3 6 52 53
3 6 7 52
3 53 52 32
3 10 11 55
3 11 54 55
3 11 12 54
3 55 54 33
3 24 43 57
3 43 56 57
3 43 26 56
3 57 56 32
3 24 58 44
3 58 59 44
3 58 33 59
3 44 59 27
3 3 60 18
3 60 61 18
3 60 29 61
3 18 61 17
3 3 19 60
3 19 62 60
3 19 20 62
3 60 62 29
3 5 53 39
3 53 56 39
3 53 32 56
3 39 56 26
3 12 38 54
3 38 59 54
3 38 27 59
3 54 59 33
3 15 16 64
3 16 63 64
3 16 17 63
3 64 63 30
3 20 21 66
3 21 65 66
3 21 22 65
3 66 65 31
3 22 46 65
3 46 49 65
3 46 26 49
3 65 49 31
3 15 64 47
3 64 50 47
3 64 30 50
3 47 50 27
3 24 67 58
3 67 68 58
3 67 28 68
3 58 68 33
3 24 57 67
3 57 69 67
3 57 32 69
3 67 69 28
3 7 35 52
3 35 69 52
3 35 28 69
3 52 69 32
3 10 55 36
3 55 68 36
3 55 33 68
3 36 68 28
3 20 66 62
3 66 70 62
3 66 31 70
3 62 70 29
3 17 61 63
3 61 71 63
3 61 29 71
3 63 71 30
3 25 72 48
3 72 70 48
3 72 29 70
3 48 70 31
3 25 51 72
3 51 71 72
3 51 30 71
3 72 71 29

CELL_TYPES 120
5 5 5 5 5 5 5 5 5 5 5 5 5 5 5 5 5 5 5 5 5 5 5 5 5 5 5 5 5 5 5 5 5 5 5 5 5 5 5 5 5 5 5 5 5 5 5 5 5 5 5 5 5 5 5 5 5 5 5 5 5 5 5 5 5 5 5 5 5 5 5 5 5 5 5 5 5 5 5 5 5 5 5 5 5 5 5 5 5 5 5 5 5 5 5 5 5 5 5 5 5 5 5 5 5 5 5 5 5 5 5 5 5 5 5 5 5 5 5 5 

POINT_DATA 73
