# vtk DataFile Version 1.0
2D Simulation C++
ASCII
DATASET UNSTRUCTURED_GRID
FIELD FieldData 1
NODES 1 2 int
66 106

POINTS 66 double
0.0 0.0 0.0
0.0 1.0 0.0
1.0 1.0 0.0
1.0 0.0 0.0
0.0 0.224003374577 0.0
0.0 0.448006749153 0.0
0.0 0.608711063862 0.0
0.0 0.769415378571 0.0
0.0 0.884707689285 0.0
0.115292325616 1.0 0.0
0.230584651232 1.0 0.0
0.391288936138 1.0 0.0
0.551993250847 1.0 0.0
0.775996625423 1.0 0.0
1.0 0.789787709713 0.0
1.0 0.579575359821 0.0
1.0 0.41641998291 0.0
1.0 0.253264576197 0.0
1.0 0.126632288098 0.0
0.873367726803 0.0 0.0
0.746735394001 0.0 0.0
0.583580076694 0.0 0.0
0.420424699783 0.0 0.0
0.210212349892 0.0 0.0
0.509802332131 0.495597276838 0.0
0.292878652349 0.707875393998 0.0
0.70101903254 0.279529700602 0.0
0.588308172796 0.7421390203 0.0
0.252514262807 0.421331868958 0.0
0.46173155704 0.257124157815 0.0
0.747482107713 0.556422290786 0.0
0.187449239567 0.813867582056 0.0
0.806469349558 0.188381445842 0.0
0.782829716266 0.768789091389 0.0
0.230949410201 0.221505918585 0.0
0.852300378587 0.325785202086 0.0
0.677039609894 0.128455626583 0.0
0.31673078396 0.869652323951 0.0
0.128504112431 0.689326577686 0.0
0.454819094131 0.64254506218 0.0
0.5602653522 0.353393572707 0.0
0.407571474711 0.398923538485 0.0
0.611113120496 0.589118746558 0.0
0.671579247002 0.879060964204 0.0
0.120149496691 0.333759985123 0.0
0.490051030202 0.875791234884 0.0
0.121818815824 0.51869385191 0.0
0.359407348086 0.142981928111 0.0
0.858862401078 0.643152845572 0.0
0.516140596079 0.124818230923 0.0
0.859853358876 0.484910481765 0.0
0.349918413941 0.548469297219 0.0
0.691073107644 0.435547589255 0.0
0.0949019455945 0.905558606992 0.0
0.424052481984 0.767885541176 0.0
0.587498043386 0.229183296601 0.0
0.901784584229 0.097396061026 0.0
0.79956864899 0.0836441709771 0.0
0.911969714132 0.200932658149 0.0
0.191945388033 0.916644236411 0.0
0.083033699001 0.810340895864 0.0
0.225428740771 0.587659946129 0.0
0.855761109499 0.88684812523 0.0
0.113259802815 0.146206212584 0.0
0.714008745247 0.662527444659 0.0
0.339457177965 0.292329890862 0.0

CELLS 106 424
3 25 31 37
3 25 38 31
3 24 41 51
3 26 52 35
3 24 42 52
3 35 52 50
3 26 32 36
3 26 35 32
3 24 51 39
3 27 43 33
3 28 34 44
3 27 33 64
3 28 65 34
3 17 35 16
3 20 21 36
3 24 52 40
3 28 51 41
3 10 11 37
3 7 38 6
3 30 52 42
3 14 48 33
3 23 34 47
3 12 13 43
3 5 44 4
3 15 50 48
3 22 47 49
3 22 23 47
3 15 48 14
3 27 64 42
3 28 41 65
3 24 39 42
3 33 43 62
3 34 63 44
3 1 53 8
3 1 9 53
3 27 42 39
3 5 46 44
3 12 43 45
3 24 40 41
3 25 37 54
3 29 41 40
3 10 37 59
3 7 60 38
3 20 36 57
3 17 58 35
3 25 61 38
3 32 57 36
3 32 35 58
3 28 44 46
3 27 45 43
3 15 16 50
3 22 49 21
3 31 59 37
3 31 38 60
3 30 50 52
3 29 49 47
3 30 48 50
3 13 62 43
3 4 44 63
3 14 33 62
3 23 63 34
3 21 49 36
3 16 35 50
3 5 6 46
3 12 45 11
3 3 56 18
3 3 19 56
3 28 61 51
3 28 46 61
3 25 39 51
3 11 45 37
3 6 38 46
3 26 40 52
3 26 36 55
3 25 54 39
3 37 45 54
3 26 55 40
3 7 8 60
3 10 59 9
3 27 39 54
3 2 62 13
3 0 4 63
3 29 40 55
3 2 14 62
3 0 63 23
3 20 57 19
3 17 18 58
3 36 49 55
3 27 54 45
3 38 61 46
3 29 55 49
3 8 53 60
3 9 59 53
3 29 47 65
3 30 64 48
3 29 65 41
3 30 42 64
3 25 51 61
3 34 65 47
3 33 48 64
3 31 53 59
3 31 60 53
3 19 57 56
3 18 56 58
3 32 56 57
3 32 58 56

CELL_TYPES 106
5 5 5 5 5 5 5 5 5 5 5 5 5 5 5 5 5 5 5 5 5 5 5 5 5 5 5 5 5 5 5 5 5 5 5 5 5 5 5 5 5 5 5 5 5 5 5 5 5 5 5 5 5 5 5 5 5 5 5 5 5 5 5 5 5 5 5 5 5 5 5 5 5 5 5 5 5 5 5 5 5 5 5 5 5 5 5 5 5 5 5 5 5 5 5 5 5 5 5 5 5 5 5 5 5 5 

POINT_DATA 66
