# vtk DataFile Version 1.0
2D Simulation C++
ASCII
DATASET UNSTRUCTURED_GRID
FIELD FieldData 1
NODES 1 2 int
66 106

POINTS 66 double
0.0 0.0 0.0
0.0 1.0 0.0
1.0 1.0 0.0
1.0 0.0 0.0
0.0 0.224003374577 0.0
0.0 0.448006749153 0.0
0.0 0.608711063862 0.0
0.0 0.769415378571 0.0
0.0 0.884707689285 0.0
0.115292325616 1.0 0.0
0.230584651232 1.0 0.0
0.391288936138 1.0 0.0
0.551993250847 1.0 0.0
0.775996625423 1.0 0.0
1.0 0.789787709713 0.0
1.0 0.579575359821 0.0
1.0 0.41641998291 0.0
1.0 0.253264576197 0.0
1.0 0.126632288098 0.0
0.873367726803 0.0 0.0
0.746735394001 0.0 0.0
0.583580076694 0.0 0.0
0.420424699783 0.0 0.0
0.210212349892 0.0 0.0
0.507854577112 0.496122722053 0.0
0.290610660524 0.709682659395 0.0
0.702056459102 0.279112185186 0.0
0.586270737933 0.741704990056 0.0
0.252019543316 0.424870675847 0.0
0.462446250746 0.257303606406 0.0
0.747459936942 0.555066007313 0.0
0.186157569583 0.814980915065 0.0
0.807843896077 0.187438665761 0.0
0.781394741541 0.768516748582 0.0
0.231160047354 0.22288118603 0.0
0.853046466048 0.324114849981 0.0
0.678395095619 0.128601946206 0.0
0.315353887228 0.870215964721 0.0
0.127740574366 0.691476883587 0.0
0.451652864909 0.642739496757 0.0
0.560141031498 0.353131786315 0.0
0.405901493746 0.399089214339 0.0
0.610383628916 0.590123023361 0.0
0.671171238816 0.878603951032 0.0
0.120778442096 0.334844291977 0.0
0.488861296493 0.875561496796 0.0
0.122098277746 0.521541196068 0.0
0.360508907483 0.143879881733 0.0
0.857957674619 0.641838056247 0.0
0.517175614213 0.125451981388 0.0
0.860041100063 0.482983746357 0.0
0.346768631623 0.551056905317 0.0
0.690698441397 0.434365320513 0.0
0.0947935023284 0.905576227418 0.0
0.422115537669 0.768002983221 0.0
0.588680479555 0.229775042346 0.0
0.902312187093 0.0969992547898 0.0
0.800517710843 0.0832915170206 0.0
0.912686966275 0.199861338891 0.0
0.191061438749 0.917086494816 0.0
0.0825132936086 0.811236429043 0.0
0.223930629818 0.592525300105 0.0
0.857408007411 0.886175663975 0.0
0.113942464309 0.144469982624 0.0
0.713231388284 0.661902672389 0.0
0.339695987619 0.293353988037 0.0

CELLS 106 424
3 25 31 37
3 25 38 31
3 24 41 51
3 26 52 35
3 24 42 52
3 35 52 50
3 26 32 36
3 26 35 32
3 24 51 39
3 27 43 33
3 28 34 44
3 27 33 64
3 28 65 34
3 17 35 16
3 20 21 36
3 24 52 40
3 28 51 41
3 10 11 37
3 7 38 6
3 30 52 42
3 14 48 33
3 23 34 47
3 12 13 43
3 5 44 4
3 15 50 48
3 22 47 49
3 22 23 47
3 15 48 14
3 27 64 42
3 28 41 65
3 24 39 42
3 33 43 62
3 34 63 44
3 1 53 8
3 1 9 53
3 27 42 39
3 5 46 44
3 12 43 45
3 24 40 41
3 25 37 54
3 29 41 40
3 10 37 59
3 7 60 38
3 20 36 57
3 17 58 35
3 25 61 38
3 32 57 36
3 32 35 58
3 28 44 46
3 27 45 43
3 15 16 50
3 22 49 21
3 31 59 37
3 31 38 60
3 30 50 52
3 29 49 47
3 30 48 50
3 13 62 43
3 4 44 63
3 14 33 62
3 23 63 34
3 21 49 36
3 16 35 50
3 5 6 46
3 12 45 11
3 3 56 18
3 3 19 56
3 28 61 51
3 28 46 61
3 25 39 51
3 11 45 37
3 6 38 46
3 26 40 52
3 26 36 55
3 25 54 39
3 37 45 54
3 26 55 40
3 7 8 60
3 10 59 9
3 27 39 54
3 2 62 13
3 0 4 63
3 29 40 55
3 2 14 62
3 0 63 23
3 20 57 19
3 17 18 58
3 36 49 55
3 27 54 45
3 38 61 46
3 29 55 49
3 8 53 60
3 9 59 53
3 29 47 65
3 30 64 48
3 29 65 41
3 30 42 64
3 25 51 61
3 34 65 47
3 33 48 64
3 31 53 59
3 31 60 53
3 19 57 56
3 18 56 58
3 32 56 57
3 32 58 56

CELL_TYPES 106
5 5 5 5 5 5 5 5 5 5 5 5 5 5 5 5 5 5 5 5 5 5 5 5 5 5 5 5 5 5 5 5 5 5 5 5 5 5 5 5 5 5 5 5 5 5 5 5 5 5 5 5 5 5 5 5 5 5 5 5 5 5 5 5 5 5 5 5 5 5 5 5 5 5 5 5 5 5 5 5 5 5 5 5 5 5 5 5 5 5 5 5 5 5 5 5 5 5 5 5 5 5 5 5 5 5 

POINT_DATA 66
