# vtk DataFile Version 1.0
2D Simulation C++
ASCII
DATASET UNSTRUCTURED_GRID
FIELD FieldData 1
NODES 1 2 int
73 120

POINTS 73 double
0.0 0.0 0.0
0.0 1.0 0.0
1.0 1.0 0.0
1.0 0.0 0.0
0.0 0.224003374577 0.0
0.0 0.448006749153 0.0
0.0 0.608711063862 0.0
0.0 0.769415378571 0.0
0.0 0.884707689285 0.0
0.115292325616 1.0 0.0
0.230584651232 1.0 0.0
0.391288936138 1.0 0.0
0.551993250847 1.0 0.0
0.775996625423 1.0 0.0
1.0 0.789787709713 0.0
1.0 0.579575359821 0.0
1.0 0.41641998291 0.0
1.0 0.253264576197 0.0
1.0 0.126632288098 0.0
0.873367726803 0.0 0.0
0.746735394001 0.0 0.0
0.583580076694 0.0 0.0
0.420424699783 0.0 0.0
0.210212349892 0.0 0.0
0.405322814167 0.594702043237 0.0
0.594438019716 0.405583329791 0.0
0.298547916258 0.302749204505 0.0
0.697237883941 0.701509897823 0.0
0.209574124668 0.790470931923 0.0
0.788681547386 0.211353152359 0.0
0.819013301945 0.436972255282 0.0
0.563075622376 0.180991119251 0.0
0.181621142803 0.571642269247 0.0
0.428386086667 0.818434152686 0.0
0.107584788833 0.892440901443 0.0
0.10112142243 0.777993435885 0.0
0.222040971618 0.898908209634 0.0
0.836309058215 0.841985568764 0.0
0.656253820124 0.869862133985 0.0
0.130184730954 0.34375211566 0.0
0.158042942503 0.163688711287 0.0
0.499879148593 0.500136196748 0.0
0.457761152214 0.362674622067 0.0
0.362007867862 0.459660041312 0.0
0.540337198541 0.638040933261 0.0
0.637314928832 0.542285431296 0.0
0.331562002609 0.132613825367 0.0
0.867375380077 0.668471521827 0.0
0.569682640567 0.282788101783 0.0
0.445098548551 0.229251685597 0.0
0.770733807433 0.554952450237 0.0
0.717219930888 0.430366916133 0.0
0.094152505018 0.653547848875 0.0
0.104338070801 0.508346069233 0.0
0.491669729009 0.895706018761 0.0
0.346480152532 0.905879880254 0.0
0.228337211256 0.452124073845 0.0
0.283242089736 0.572803719753 0.0
0.427216912019 0.716807641024 0.0
0.547883894621 0.771729176432 0.0
0.889825547545 0.110190123393 0.0
0.898989398962 0.230768645299 0.0
0.769256006456 0.101029249171 0.0
0.9063552433 0.360756540257 0.0
0.895601224181 0.507226422619 0.0
0.492806996468 0.104393360124 0.0
0.639270384167 0.0936546903219 0.0
0.308346427933 0.691693502636 0.0
0.322076120895 0.803011525046 0.0
0.197033718633 0.677965393529 0.0
0.672700331335 0.196396753468 0.0
0.803627679911 0.327344148933 0.0
0.691016580669 0.309019748629 0.0

CELLS 120 480
3 1 34 8
3 34 35 8
3 34 28 35
3 8 35 7
3 1 9 34
3 9 36 34
3 9 10 36
3 34 36 28
3 2 37 13
3 37 38 13
3 37 27 38
3 13 38 12
3 0 4 40
3 4 39 40
3 4 5 39
3 40 39 26
3 24 41 43
3 41 42 43
3 41 25 42
3 43 42 26
3 24 44 41
3 44 45 41
3 44 27 45
3 41 45 25
3 0 40 23
3 40 46 23
3 40 26 46
3 23 46 22
3 2 14 37
3 14 47 37
3 14 15 47
3 37 47 27
3 25 48 42
3 48 49 42
3 48 31 49
3 42 49 26
3 25 45 51
3 45 50 51
3 45 27 50
3 51 50 30
3 5 6 53
3 6 52 53
3 6 7 52
3 53 52 32
3 10 11 55
3 11 54 55
3 11 12 54
3 55 54 33
3 24 43 57
3 43 56 57
3 43 26 56
3 57 56 32
3 24 58 44
3 58 59 44
3 58 33 59
3 44 59 27
3 3 60 18
3 60 61 18
3 60 29 61
3 18 61 17
3 3 19 60
3 19 62 60
3 19 20 62
3 60 62 29
3 5 53 39
3 53 56 39
3 53 32 56
3 39 56 26
3 12 38 54
3 38 59 54
3 38 27 59
3 54 59 33
3 15 16 64
3 16 63 64
3 16 17 63
3 64 63 30
3 20 21 66
3 21 65 66
3 21 22 65
3 66 65 31
3 22 46 65
3 46 49 65
3 46 26 49
3 65 49 31
3 15 64 47
3 64 50 47
3 64 30 50
3 47 50 27
3 24 67 58
3 67 68 58
3 67 28 68
3 58 68 33
3 24 57 67
3 57 69 67
3 57 32 69
3 67 69 28
3 7 35 52
3 35 69 52
3 35 28 69
3 52 69 32
3 10 55 36
3 55 68 36
3 55 33 68
3 36 68 28
3 20 66 62
3 66 70 62
3 66 31 70
3 62 70 29
3 17 61 63
3 61 71 63
3 61 29 71
3 63 71 30
3 25 72 48
3 72 70 48
3 72 29 70
3 48 70 31
3 25 51 72
3 51 71 72
3 51 30 71
3 72 71 29

CELL_TYPES 120
5 5 5 5 5 5 5 5 5 5 5 5 5 5 5 5 5 5 5 5 5 5 5 5 5 5 5 5 5 5 5 5 5 5 5 5 5 5 5 5 5 5 5 5 5 5 5 5 5 5 5 5 5 5 5 5 5 5 5 5 5 5 5 5 5 5 5 5 5 5 5 5 5 5 5 5 5 5 5 5 5 5 5 5 5 5 5 5 5 5 5 5 5 5 5 5 5 5 5 5 5 5 5 5 5 5 5 5 5 5 5 5 5 5 5 5 5 5 5 5 

POINT_DATA 73
