# vtk DataFile Version 1.0
2D Simulation C++
ASCII
DATASET UNSTRUCTURED_GRID
FIELD FieldData 1
NODES 1 2 int
73 120

POINTS 73 double
0.0 0.0 0.0
0.0 1.0 0.0
1.0 1.0 0.0
1.0 0.0 0.0
0.0 0.224003374577 0.0
0.0 0.448006749153 0.0
0.0 0.608711063862 0.0
0.0 0.769415378571 0.0
0.0 0.884707689285 0.0
0.115292325616 1.0 0.0
0.230584651232 1.0 0.0
0.391288936138 1.0 0.0
0.551993250847 1.0 0.0
0.775996625423 1.0 0.0
1.0 0.789787709713 0.0
1.0 0.579575359821 0.0
1.0 0.41641998291 0.0
1.0 0.253264576197 0.0
1.0 0.126632288098 0.0
0.873367726803 0.0 0.0
0.746735394001 0.0 0.0
0.583580076694 0.0 0.0
0.420424699783 0.0 0.0
0.210212349892 0.0 0.0
0.405372869837 0.594637503722 0.0
0.595928816226 0.404071551523 0.0
0.300307451492 0.303965153691 0.0
0.695987691143 0.699806105206 0.0
0.210049684597 0.790028274517 0.0
0.790627163954 0.209430053061 0.0
0.819610768417 0.434053719298 0.0
0.566010561454 0.180402723301 0.0
0.182420639266 0.573060874386 0.0
0.426983403339 0.817648068128 0.0
0.10791415184 0.892139289142 0.0
0.1016710256 0.77814627249 0.0
0.221940035383 0.898364479015 0.0
0.835471576502 0.841118606304 0.0
0.655035370253 0.868941146762 0.0
0.131174922996 0.34499386319 0.0
0.158940763973 0.164536209564 0.0
0.50040329092 0.499578211527 0.0
0.459743303196 0.362764459813 0.0
0.363139930101 0.460513539649 0.0
0.539439044768 0.636935119108 0.0
0.637175524745 0.540305910373 0.0
0.333005217989 0.133311736802 0.0
0.866660357837 0.667049849069 0.0
0.572461855586 0.281877256576 0.0
0.447728034334 0.229549385679 0.0
0.770404588852 0.552343929291 0.0
0.718126630671 0.427598084329 0.0
0.0946290982841 0.654374323574 0.0
0.104965113984 0.509597364794 0.0
0.490441750129 0.895113215413 0.0
0.34569853507 0.905394470573 0.0
0.229500383151 0.453782333674 0.0
0.284000732994 0.573703543077 0.0
0.426310381113 0.716063350971 0.0
0.546212073084 0.770641548446 0.0
0.890795001621 0.109227769388 0.0
0.899986405135 0.229236579332 0.0
0.770796700874 0.100048088101 0.0
0.907001407171 0.358989422811 0.0
0.895561138439 0.50546990072 0.0
0.494577692807 0.104427490813 0.0
0.64104531319 0.0930234415882 0.0
0.30856164848 0.691487347278 0.0
0.321635480264 0.802288920486 0.0
0.197753997964 0.678445835856 0.0
0.675382401474 0.19500764577 0.0
0.805043299221 0.324681493906 0.0
0.693183235652 0.306872596084 0.0

CELLS 120 480
3 1 34 8
3 34 35 8
3 34 28 35
3 8 35 7
3 1 9 34
3 9 36 34
3 9 10 36
3 34 36 28
3 2 37 13
3 37 38 13
3 37 27 38
3 13 38 12
3 0 4 40
3 4 39 40
3 4 5 39
3 40 39 26
3 24 41 43
3 41 42 43
3 41 25 42
3 43 42 26
3 24 44 41
3 44 45 41
3 44 27 45
3 41 45 25
3 0 40 23
3 40 46 23
3 40 26 46
3 23 46 22
3 2 14 37
3 14 47 37
3 14 15 47
3 37 47 27
3 25 48 42
3 48 49 42
3 48 31 49
3 42 49 26
3 25 45 51
3 45 50 51
3 45 27 50
3 51 50 30
3 5 6 53
3 6 52 53
3 6 7 52
3 53 52 32
3 10 11 55
3 11 54 55
3 11 12 54
3 55 54 33
3 24 43 57
3 43 56 57
3 43 26 56
3 57 56 32
3 24 58 44
3 58 59 44
3 58 33 59
3 44 59 27
3 3 60 18
3 60 61 18
3 60 29 61
3 18 61 17
3 3 19 60
3 19 62 60
3 19 20 62
3 60 62 29
3 5 53 39
3 53 56 39
3 53 32 56
3 39 56 26
3 12 38 54
3 38 59 54
3 38 27 59
3 54 59 33
3 15 16 64
3 16 63 64
3 16 17 63
3 64 63 30
3 20 21 66
3 21 65 66
3 21 22 65
3 66 65 31
3 22 46 65
3 46 49 65
3 46 26 49
3 65 49 31
3 15 64 47
3 64 50 47
3 64 30 50
3 47 50 27
3 24 67 58
3 67 68 58
3 67 28 68
3 58 68 33
3 24 57 67
3 57 69 67
3 57 32 69
3 67 69 28
3 7 35 52
3 35 69 52
3 35 28 69
3 52 69 32
3 10 55 36
3 55 68 36
3 55 33 68
3 36 68 28
3 20 66 62
3 66 70 62
3 66 31 70
3 62 70 29
3 17 61 63
3 61 71 63
3 61 29 71
3 63 71 30
3 25 72 48
3 72 70 48
3 72 29 70
3 48 70 31
3 25 51 72
3 51 71 72
3 51 30 71
3 72 71 29

CELL_TYPES 120
5 5 5 5 5 5 5 5 5 5 5 5 5 5 5 5 5 5 5 5 5 5 5 5 5 5 5 5 5 5 5 5 5 5 5 5 5 5 5 5 5 5 5 5 5 5 5 5 5 5 5 5 5 5 5 5 5 5 5 5 5 5 5 5 5 5 5 5 5 5 5 5 5 5 5 5 5 5 5 5 5 5 5 5 5 5 5 5 5 5 5 5 5 5 5 5 5 5 5 5 5 5 5 5 5 5 5 5 5 5 5 5 5 5 5 5 5 5 5 5 

POINT_DATA 73
