# vtk DataFile Version 1.0
2D Simulation C++
ASCII
DATASET UNSTRUCTURED_GRID
FIELD FieldData 1
NODES 1 2 int
66 106

POINTS 66 double
0.0 0.0 0.0
0.0 1.0 0.0
1.0 1.0 0.0
1.0 0.0 0.0
0.0 0.224003374577 0.0
0.0 0.448006749153 0.0
0.0 0.608711063862 0.0
0.0 0.769415378571 0.0
0.0 0.884707689285 0.0
0.115292325616 1.0 0.0
0.230584651232 1.0 0.0
0.391288936138 1.0 0.0
0.551993250847 1.0 0.0
0.775996625423 1.0 0.0
1.0 0.789787709713 0.0
1.0 0.579575359821 0.0
1.0 0.41641998291 0.0
1.0 0.253264576197 0.0
1.0 0.126632288098 0.0
0.873367726803 0.0 0.0
0.746735394001 0.0 0.0
0.583580076694 0.0 0.0
0.420424699783 0.0 0.0
0.210212349892 0.0 0.0
0.528967998825 0.487606216246 0.0
0.315233120808 0.688010671669 0.0
0.697304648549 0.282492797381 0.0
0.607370237489 0.742630413763 0.0
0.262441338684 0.396693144628 0.0
0.461548454201 0.248524192993 0.0
0.757258600335 0.564555625097 0.0
0.201787960481 0.799444354539 0.0
0.798917767997 0.194399823361 0.0
0.793203609943 0.772949162039 0.0
0.231289981793 0.208784524828 0.0
0.850562535904 0.333302246877 0.0
0.670235480398 0.128814393401 0.0
0.330110479669 0.861257668961 0.0
0.140107514277 0.671245878917 0.0
0.481018010163 0.633171534784 0.0
0.566019810989 0.349579856168 0.0
0.420991806312 0.384906538619 0.0
0.628403391604 0.588078981861 0.0
0.678502390973 0.881731400453 0.0
0.120306603014 0.322804590693 0.0
0.501855435149 0.874809233548 0.0
0.126953009219 0.499668189927 0.0
0.356746928265 0.134671821476 0.0
0.866446435803 0.650145541192 0.0
0.511120487734 0.1201746832 0.0
0.863055989454 0.493844741714 0.0
0.373874019926 0.52620365793 0.0
0.699113292052 0.440174890145 0.0
0.100757853057 0.899634873709 0.0
0.445735757704 0.760450165925 0.0
0.582385675016 0.225412879478 0.0
0.897397609951 0.101057746204 0.0
0.793758146364 0.0865208134325 0.0
0.907530047802 0.206743451679 0.0
0.200611677056 0.909913738627 0.0
0.0906538159574 0.800031493088 0.0
0.242909290584 0.557477860403 0.0
0.856305701072 0.890219050267 0.0
0.111004018916 0.144495287066 0.0
0.728040719836 0.667760361367 0.0
0.343126063228 0.276529424708 0.0

CELLS 106 424
3 25 31 37
3 25 38 31
3 24 41 51
3 26 52 35
3 24 42 52
3 35 52 50
3 26 32 36
3 26 35 32
3 24 51 39
3 27 43 33
3 28 34 44
3 27 33 64
3 28 65 34
3 17 35 16
3 20 21 36
3 24 52 40
3 28 51 41
3 10 11 37
3 7 38 6
3 30 52 42
3 14 48 33
3 23 34 47
3 12 13 43
3 5 44 4
3 15 50 48
3 22 47 49
3 22 23 47
3 15 48 14
3 27 64 42
3 28 41 65
3 24 39 42
3 33 43 62
3 34 63 44
3 1 53 8
3 1 9 53
3 27 42 39
3 5 46 44
3 12 43 45
3 24 40 41
3 25 37 54
3 29 41 40
3 10 37 59
3 7 60 38
3 20 36 57
3 17 58 35
3 25 61 38
3 32 57 36
3 32 35 58
3 28 44 46
3 27 45 43
3 15 16 50
3 22 49 21
3 31 59 37
3 31 38 60
3 30 50 52
3 29 49 47
3 30 48 50
3 13 62 43
3 4 44 63
3 14 33 62
3 23 63 34
3 21 49 36
3 16 35 50
3 5 6 46
3 12 45 11
3 3 56 18
3 3 19 56
3 28 61 51
3 28 46 61
3 25 39 51
3 11 45 37
3 6 38 46
3 26 40 52
3 26 36 55
3 25 54 39
3 37 45 54
3 26 55 40
3 7 8 60
3 10 59 9
3 27 39 54
3 2 62 13
3 0 4 63
3 29 40 55
3 2 14 62
3 0 63 23
3 20 57 19
3 17 18 58
3 36 49 55
3 27 54 45
3 38 61 46
3 29 55 49
3 8 53 60
3 9 59 53
3 29 47 65
3 30 64 48
3 29 65 41
3 30 42 64
3 25 51 61
3 34 65 47
3 33 48 64
3 31 53 59
3 31 60 53
3 19 57 56
3 18 56 58
3 32 56 57
3 32 58 56

CELL_TYPES 106
5 5 5 5 5 5 5 5 5 5 5 5 5 5 5 5 5 5 5 5 5 5 5 5 5 5 5 5 5 5 5 5 5 5 5 5 5 5 5 5 5 5 5 5 5 5 5 5 5 5 5 5 5 5 5 5 5 5 5 5 5 5 5 5 5 5 5 5 5 5 5 5 5 5 5 5 5 5 5 5 5 5 5 5 5 5 5 5 5 5 5 5 5 5 5 5 5 5 5 5 5 5 5 5 5 5 

POINT_DATA 66
