# vtk DataFile Version 1.0
2D Simulation C++
ASCII
DATASET UNSTRUCTURED_GRID
FIELD FieldData 1
NODES 1 2 int
73 120

POINTS 73 double
0.0 0.0 0.0
0.0 1.0 0.0
1.0 1.0 0.0
1.0 0.0 0.0
0.0 0.224003374577 0.0
0.0 0.448006749153 0.0
0.0 0.608711063862 0.0
0.0 0.769415378571 0.0
0.0 0.884707689285 0.0
0.115292325616 1.0 0.0
0.230584651232 1.0 0.0
0.391288936138 1.0 0.0
0.551993250847 1.0 0.0
0.775996625423 1.0 0.0
1.0 0.789787709713 0.0
1.0 0.579575359821 0.0
1.0 0.41641998291 0.0
1.0 0.253264576197 0.0
1.0 0.126632288098 0.0
0.873367726803 0.0 0.0
0.746735394001 0.0 0.0
0.583580076694 0.0 0.0
0.420424699783 0.0 0.0
0.210212349892 0.0 0.0
0.404943655861 0.595081514852 0.0
0.592784324004 0.407238797283 0.0
0.296994276188 0.302205884521 0.0
0.697798069665 0.703034555362 0.0
0.209469395686 0.790554019476 0.0
0.78695074321 0.213068400212 0.0
0.818366809597 0.439271766556 0.0
0.560756135372 0.181640412435 0.0
0.180791436442 0.570796583967 0.0
0.429219067826 0.8192399907 0.0
0.10753060872 0.892480264544 0.0
0.100872373573 0.777791855778 0.0
0.222221836332 0.899144129753 0.0
0.836764263534 0.842717987399 0.0
0.656883847842 0.870697998137 0.0
0.12932160376 0.343120403064 0.0
0.15729480212 0.163237178345 0.0
0.49894822309 0.50107407848 0.0
0.455844512267 0.36309977084 0.0
0.360750371559 0.459458484496 0.0
0.540555139589 0.639280625144 0.0
0.636910453791 0.544187083736 0.0
0.330425087915 0.132265558765 0.0
0.867734973357 0.669591749215 0.0
0.567252775289 0.283903953382 0.0
0.442958487266 0.229318317273 0.0
0.770685333366 0.55707048816 0.0
0.716109558418 0.432779188085 0.0
0.0937259951246 0.653051435177 0.0
0.103688324085 0.507673370623 0.0
0.492334129978 0.896332196112 0.0
0.346959773607 0.906293454591 0.0
0.227186578496 0.451265439262 0.0
0.28243575415 0.572337110784 0.0
0.427682158223 0.717596670949 0.0
0.548745037815 0.772845728387 0.0
0.888981807997 0.111026678173 0.0
0.898089662251 0.23201430753 0.0
0.767999713725 0.101919741672 0.0
0.905788738487 0.36210467273 0.0
0.89555256834 0.508555531704 0.0
0.491462427575 0.104448903769 0.0
0.637910794897 0.0942170164667 0.0
0.308189577069 0.691838199314 0.0
0.322465167121 0.803508118428 0.0
0.196520724518 0.677556329124 0.0
0.670457297263 0.197737609102 0.0
0.802277030895 0.329568780487 0.0
0.68897541557 0.311048767091 0.0

CELLS 120 480
3 1 34 8
3 34 35 8
3 34 28 35
3 8 35 7
3 1 9 34
3 9 36 34
3 9 10 36
3 34 36 28
3 2 37 13
3 37 38 13
3 37 27 38
3 13 38 12
3 0 4 40
3 4 39 40
3 4 5 39
3 40 39 26
3 24 41 43
3 41 42 43
3 41 25 42
3 43 42 26
3 24 44 41
3 44 45 41
3 44 27 45
3 41 45 25
3 0 40 23
3 40 46 23
3 40 26 46
3 23 46 22
3 2 14 37
3 14 47 37
3 14 15 47
3 37 47 27
3 25 48 42
3 48 49 42
3 48 31 49
3 42 49 26
3 25 45 51
3 45 50 51
3 45 27 50
3 51 50 30
3 5 6 53
3 6 52 53
3 6 7 52
3 53 52 32
3 10 11 55
3 11 54 55
3 11 12 54
3 55 54 33
3 24 43 57
3 43 56 57
3 43 26 56
3 57 56 32
3 24 58 44
3 58 59 44
3 58 33 59
3 44 59 27
3 3 60 18
3 60 61 18
3 60 29 61
3 18 61 17
3 3 19 60
3 19 62 60
3 19 20 62
3 60 62 29
3 5 53 39
3 53 56 39
3 53 32 56
3 39 56 26
3 12 38 54
3 38 59 54
3 38 27 59
3 54 59 33
3 15 16 64
3 16 63 64
3 16 17 63
3 64 63 30
3 20 21 66
3 21 65 66
3 21 22 65
3 66 65 31
3 22 46 65
3 46 49 65
3 46 26 49
3 65 49 31
3 15 64 47
3 64 50 47
3 64 30 50
3 47 50 27
3 24 67 58
3 67 68 58
3 67 28 68
3 58 68 33
3 24 57 67
3 57 69 67
3 57 32 69
3 67 69 28
3 7 35 52
3 35 69 52
3 35 28 69
3 52 69 32
3 10 55 36
3 55 68 36
3 55 33 68
3 36 68 28
3 20 66 62
3 66 70 62
3 66 31 70
3 62 70 29
3 17 61 63
3 61 71 63
3 61 29 71
3 63 71 30
3 25 72 48
3 72 70 48
3 72 29 70
3 48 70 31
3 25 51 72
3 51 71 72
3 51 30 71
3 72 71 29

CELL_TYPES 120
5 5 5 5 5 5 5 5 5 5 5 5 5 5 5 5 5 5 5 5 5 5 5 5 5 5 5 5 5 5 5 5 5 5 5 5 5 5 5 5 5 5 5 5 5 5 5 5 5 5 5 5 5 5 5 5 5 5 5 5 5 5 5 5 5 5 5 5 5 5 5 5 5 5 5 5 5 5 5 5 5 5 5 5 5 5 5 5 5 5 5 5 5 5 5 5 5 5 5 5 5 5 5 5 5 5 5 5 5 5 5 5 5 5 5 5 5 5 5 5 

POINT_DATA 73
