# vtk DataFile Version 1.0
2D Simulation C++
ASCII
DATASET UNSTRUCTURED_GRID
FIELD FieldData 1
NODES 1 2 int
66 106

POINTS 66 double
0.0 0.0 0.0
0.0 1.0 0.0
1.0 1.0 0.0
1.0 0.0 0.0
0.0 0.224003374577 0.0
0.0 0.448006749153 0.0
0.0 0.608711063862 0.0
0.0 0.769415378571 0.0
0.0 0.884707689285 0.0
0.115292325616 1.0 0.0
0.230584651232 1.0 0.0
0.391288936138 1.0 0.0
0.551993250847 1.0 0.0
0.775996625423 1.0 0.0
1.0 0.789787709713 0.0
1.0 0.579575359821 0.0
1.0 0.41641998291 0.0
1.0 0.253264576197 0.0
1.0 0.126632288098 0.0
0.873367726803 0.0 0.0
0.746735394001 0.0 0.0
0.583580076694 0.0 0.0
0.420424699783 0.0 0.0
0.210212349892 0.0 0.0
0.502647607054 0.497776587373 0.0
0.284275161119 0.713365346105 0.0
0.704946595615 0.278713618381 0.0
0.580402566851 0.739793764968 0.0
0.251411434318 0.43657035462 0.0
0.464847526798 0.256865918391 0.0
0.74881483784 0.551178603534 0.0
0.182309531032 0.817752176585 0.0
0.812186183388 0.184543177624 0.0
0.775303544712 0.768543618901 0.0
0.231269480676 0.227059125954 0.0
0.85572676036 0.318326280224 0.0
0.682917581065 0.129351581315 0.0
0.311346646731 0.871761855365 0.0
0.126636046526 0.697163521649 0.0
0.441312682294 0.641749043616 0.0
0.560622248424 0.351737766626 0.0
0.400101294918 0.396476048853 0.0
0.610354725144 0.596527193738 0.0
0.669723770715 0.877181869028 0.0
0.123048426278 0.338274463931 0.0
0.485502957285 0.874695593763 0.0
0.123951602968 0.530414657895 0.0
0.365054858504 0.147147183761 0.0
0.854310740318 0.637196931 0.0
0.519721897605 0.127783745663 0.0
0.861148499045 0.476681727652 0.0
0.336194359899 0.559594592146 0.0
0.689576926559 0.429789995211 0.0
0.0958475273345 0.904250183181 0.0
0.418125353488 0.767906145636 0.0
0.591854759443 0.232468240178 0.0
0.903299429831 0.0964395108524 0.0
0.80333759778 0.0823220915937 0.0
0.914480020371 0.196567203077 0.0
0.188236963628 0.918267942146 0.0
0.0813415324175 0.813698140742 0.0
0.220089247264 0.609349209613 0.0
0.867178506572 0.883677028368 0.0
0.116395524587 0.133730226004 0.0
0.712144033573 0.65994308487 0.0
0.341270949673 0.294721391291 0.0

CELLS 106 424
3 25 31 37
3 25 38 31
3 24 41 51
3 26 52 35
3 24 42 52
3 35 52 50
3 26 32 36
3 26 35 32
3 24 51 39
3 27 43 33
3 28 34 44
3 27 33 64
3 28 65 34
3 17 35 16
3 20 21 36
3 24 52 40
3 28 51 41
3 10 11 37
3 7 38 6
3 30 52 42
3 14 48 33
3 23 34 47
3 12 13 43
3 5 44 4
3 15 50 48
3 22 47 49
3 22 23 47
3 15 48 14
3 27 64 42
3 28 41 65
3 24 39 42
3 33 43 62
3 34 63 44
3 1 53 8
3 1 9 53
3 27 42 39
3 5 46 44
3 12 43 45
3 24 40 41
3 25 37 54
3 29 41 40
3 10 37 59
3 7 60 38
3 20 36 57
3 17 58 35
3 25 61 38
3 32 57 36
3 32 35 58
3 28 44 46
3 27 45 43
3 15 16 50
3 22 49 21
3 31 59 37
3 31 38 60
3 30 50 52
3 29 49 47
3 30 48 50
3 13 62 43
3 4 44 63
3 14 33 62
3 23 63 34
3 21 49 36
3 16 35 50
3 5 6 46
3 12 45 11
3 3 56 18
3 3 19 56
3 28 61 51
3 28 46 61
3 25 39 51
3 11 45 37
3 6 38 46
3 26 40 52
3 26 36 55
3 25 54 39
3 37 45 54
3 26 55 40
3 7 8 60
3 10 59 9
3 27 39 54
3 2 62 13
3 0 4 63
3 29 40 55
3 2 14 62
3 0 63 23
3 20 57 19
3 17 18 58
3 36 49 55
3 27 54 45
3 38 61 46
3 29 55 49
3 8 53 60
3 9 59 53
3 29 47 65
3 30 64 48
3 29 65 41
3 30 42 64
3 25 51 61
3 34 65 47
3 33 48 64
3 31 53 59
3 31 60 53
3 19 57 56
3 18 56 58
3 32 56 57
3 32 58 56

CELL_TYPES 106
5 5 5 5 5 5 5 5 5 5 5 5 5 5 5 5 5 5 5 5 5 5 5 5 5 5 5 5 5 5 5 5 5 5 5 5 5 5 5 5 5 5 5 5 5 5 5 5 5 5 5 5 5 5 5 5 5 5 5 5 5 5 5 5 5 5 5 5 5 5 5 5 5 5 5 5 5 5 5 5 5 5 5 5 5 5 5 5 5 5 5 5 5 5 5 5 5 5 5 5 5 5 5 5 5 5 

POINT_DATA 66
