# vtk DataFile Version 1.0
2D Simulation C++
ASCII
DATASET UNSTRUCTURED_GRID
FIELD FieldData 1
NODES 1 2 int
73 120

POINTS 73 double
0.0 0.0 0.0
0.0 1.0 0.0
1.0 1.0 0.0
1.0 0.0 0.0
0.0 0.224003374577 0.0
0.0 0.448006749153 0.0
0.0 0.608711063862 0.0
0.0 0.769415378571 0.0
0.0 0.884707689285 0.0
0.115292325616 1.0 0.0
0.230584651232 1.0 0.0
0.391288936138 1.0 0.0
0.551993250847 1.0 0.0
0.775996625423 1.0 0.0
1.0 0.789787709713 0.0
1.0 0.579575359821 0.0
1.0 0.41641998291 0.0
1.0 0.253264576197 0.0
1.0 0.126632288098 0.0
0.873367726803 0.0 0.0
0.746735394001 0.0 0.0
0.583580076694 0.0 0.0
0.420424699783 0.0 0.0
0.210212349892 0.0 0.0
0.405240565965 0.594757104011 0.0
0.596758666145 0.403213768069 0.0
0.301510795379 0.30506006369 0.0
0.694854873423 0.698661619171 0.0
0.21076367798 0.789343488251 0.0
0.791912151427 0.208162451372 0.0
0.820072650109 0.431847619543 0.0
0.568223893359 0.179961428386 0.0
0.182820555717 0.574226534398 0.0
0.425812522352 0.817234027676 0.0
0.108406684202 0.891669908551 0.0
0.102305118399 0.77813823489 0.0
0.222013341234 0.897721415901 0.0
0.834759572779 0.840552564311 0.0
0.653854941914 0.868293988176 0.0
0.131918484831 0.346230467358 0.0
0.159537045058 0.165281593604 0.0
0.500498407853 0.499438647745 0.0
0.46099337741 0.363070586943 0.0
0.363770982133 0.461376531918 0.0
0.538527108341 0.636329358282 0.0
0.636817735335 0.539032185095 0.0
0.334094749694 0.133905892433 0.0
0.866054088322 0.665971652923 0.0
0.574404569053 0.281407922675 0.0
0.449685183853 0.229847087057 0.0
0.770080289779 0.550391445126 0.0
0.718605570217 0.425655029728 0.0
0.0949111160536 0.655124261454 0.0
0.105264489612 0.510780030992 0.0
0.489284657778 0.894826487121 0.0
0.345013909628 0.905071486134 0.0
0.230253809191 0.455267271629 0.0
0.284441995992 0.574432541053 0.0
0.425571299071 0.715629835094 0.0
0.544687644261 0.769989257456 0.0
0.891438080621 0.108586954512 0.0
0.900645519259 0.228122072446 0.0
0.771913994396 0.0993993004462 0.0
0.907520303934 0.357601243167 0.0
0.895615692339 0.504083732568 0.0
0.495968127399 0.104372199702 0.0
0.642434763284 0.0925192504968 0.0
0.308841767328 0.69121805371 0.0
0.321474147786 0.801646505251 0.0
0.198373150894 0.678655311527 0.0
0.677288142898 0.194102770431 0.0
0.805978939247 0.322790123804 0.0
0.694588132828 0.305493049969 0.0

CELLS 120 480
3 1 34 8
3 34 35 8
3 34 28 35
3 8 35 7
3 1 9 34
3 9 36 34
3 9 10 36
3 34 36 28
3 2 37 13
3 37 38 13
3 37 27 38
3 13 38 12
3 0 4 40
3 4 39 40
3 4 5 39
3 40 39 26
3 24 41 43
3 41 42 43
3 41 25 42
3 43 42 26
3 24 44 41
3 44 45 41
3 44 27 45
3 41 45 25
3 0 40 23
3 40 46 23
3 40 26 46
3 23 46 22
3 2 14 37
3 14 47 37
3 14 15 47
3 37 47 27
3 25 48 42
3 48 49 42
3 48 31 49
3 42 49 26
3 25 45 51
3 45 50 51
3 45 27 50
3 51 50 30
3 5 6 53
3 6 52 53
3 6 7 52
3 53 52 32
3 10 11 55
3 11 54 55
3 11 12 54
3 55 54 33
3 24 43 57
3 43 56 57
3 43 26 56
3 57 56 32
3 24 58 44
3 58 59 44
3 58 33 59
3 44 59 27
3 3 60 18
3 60 61 18
3 60 29 61
3 18 61 17
3 3 19 60
3 19 62 60
3 19 20 62
3 60 62 29
3 5 53 39
3 53 56 39
3 53 32 56
3 39 56 26
3 12 38 54
3 38 59 54
3 38 27 59
3 54 59 33
3 15 16 64
3 16 63 64
3 16 17 63
3 64 63 30
3 20 21 66
3 21 65 66
3 21 22 65
3 66 65 31
3 22 46 65
3 46 49 65
3 46 26 49
3 65 49 31
3 15 64 47
3 64 50 47
3 64 30 50
3 47 50 27
3 24 67 58
3 67 68 58
3 67 28 68
3 58 68 33
3 24 57 67
3 57 69 67
3 57 32 69
3 67 69 28
3 7 35 52
3 35 69 52
3 35 28 69
3 52 69 32
3 10 55 36
3 55 68 36
3 55 33 68
3 36 68 28
3 20 66 62
3 66 70 62
3 66 31 70
3 62 70 29
3 17 61 63
3 61 71 63
3 61 29 71
3 63 71 30
3 25 72 48
3 72 70 48
3 72 29 70
3 48 70 31
3 25 51 72
3 51 71 72
3 51 30 71
3 72 71 29

CELL_TYPES 120
5 5 5 5 5 5 5 5 5 5 5 5 5 5 5 5 5 5 5 5 5 5 5 5 5 5 5 5 5 5 5 5 5 5 5 5 5 5 5 5 5 5 5 5 5 5 5 5 5 5 5 5 5 5 5 5 5 5 5 5 5 5 5 5 5 5 5 5 5 5 5 5 5 5 5 5 5 5 5 5 5 5 5 5 5 5 5 5 5 5 5 5 5 5 5 5 5 5 5 5 5 5 5 5 5 5 5 5 5 5 5 5 5 5 5 5 5 5 5 5 

POINT_DATA 73
