# vtk DataFile Version 1.0
2D Simulation C++
ASCII
DATASET UNSTRUCTURED_GRID
FIELD FieldData 1
NODES 1 2 int
66 106

POINTS 66 double
0.0 0.0 0.0
0.0 1.0 0.0
1.0 1.0 0.0
1.0 0.0 0.0
0.0 0.224003374577 0.0
0.0 0.448006749153 0.0
0.0 0.608711063862 0.0
0.0 0.769415378571 0.0
0.0 0.884707689285 0.0
0.115292325616 1.0 0.0
0.230584651232 1.0 0.0
0.391288936138 1.0 0.0
0.551993250847 1.0 0.0
0.775996625423 1.0 0.0
1.0 0.789787709713 0.0
1.0 0.579575359821 0.0
1.0 0.41641998291 0.0
1.0 0.253264576197 0.0
1.0 0.126632288098 0.0
0.873367726803 0.0 0.0
0.746735394001 0.0 0.0
0.583580076694 0.0 0.0
0.420424699783 0.0 0.0
0.210212349892 0.0 0.0
0.510325722168 0.495457446047 0.0
0.293487659792 0.707364657151 0.0
0.700748657561 0.279654518353 0.0
0.588847578472 0.742240132214 0.0
0.252668244332 0.420431544762 0.0
0.46155576626 0.257047799465 0.0
0.747527286695 0.556778681913 0.0
0.1877967046 0.813552631177 0.0
0.806114031001 0.188628420973 0.0
0.78317406159 0.76888131192 0.0
0.230885486759 0.22114145313 0.0
0.852116947833 0.326200620098 0.0
0.676694605262 0.128429345255 0.0
0.317097285643 0.869493972452 0.0
0.128733708422 0.688747836462 0.0
0.455635644739 0.642455435443 0.0
0.560314126269 0.353442977305 0.0
0.407990809039 0.398804925724 0.0
0.611361759689 0.58893073739 0.0
0.671693435199 0.879179367981 0.0
0.119999700305 0.33346745675 0.0
0.490369798815 0.875844658333 0.0
0.121777073483 0.517961776877 0.0
0.359147351303 0.142754390804 0.0
0.859081675941 0.643481985424 0.0
0.515864097837 0.124662690835 0.0
0.859819357505 0.485394335668 0.0
0.350719194171 0.547798130315 0.0
0.691179138611 0.435837976597 0.0
0.094961813402 0.905520519122 0.0
0.424600057285 0.767834157663 0.0
0.58718501311 0.229048576404 0.0
0.901633850607 0.0975130677665 0.0
0.79932037625 0.083739617799 0.0
0.911776116142 0.201208517542 0.0
0.192177074827 0.916520336338 0.0
0.0831838225785 0.810093336288 0.0
0.225841492938 0.586438957816 0.0
0.855434459172 0.887011591521 0.0
0.113092882485 0.146537987575 0.0
0.714245585996 0.662695460497 0.0
0.339415312275 0.292019307043 0.0

CELLS 106 424
3 25 31 37
3 25 38 31
3 24 41 51
3 26 52 35
3 24 42 52
3 35 52 50
3 26 32 36
3 26 35 32
3 24 51 39
3 27 43 33
3 28 34 44
3 27 33 64
3 28 65 34
3 17 35 16
3 20 21 36
3 24 52 40
3 28 51 41
3 10 11 37
3 7 38 6
3 30 52 42
3 14 48 33
3 23 34 47
3 12 13 43
3 5 44 4
3 15 50 48
3 22 47 49
3 22 23 47
3 15 48 14
3 27 64 42
3 28 41 65
3 24 39 42
3 33 43 62
3 34 63 44
3 1 53 8
3 1 9 53
3 27 42 39
3 5 46 44
3 12 43 45
3 24 40 41
3 25 37 54
3 29 41 40
3 10 37 59
3 7 60 38
3 20 36 57
3 17 58 35
3 25 61 38
3 32 57 36
3 32 35 58
3 28 44 46
3 27 45 43
3 15 16 50
3 22 49 21
3 31 59 37
3 31 38 60
3 30 50 52
3 29 49 47
3 30 48 50
3 13 62 43
3 4 44 63
3 14 33 62
3 23 63 34
3 21 49 36
3 16 35 50
3 5 6 46
3 12 45 11
3 3 56 18
3 3 19 56
3 28 61 51
3 28 46 61
3 25 39 51
3 11 45 37
3 6 38 46
3 26 40 52
3 26 36 55
3 25 54 39
3 37 45 54
3 26 55 40
3 7 8 60
3 10 59 9
3 27 39 54
3 2 62 13
3 0 4 63
3 29 40 55
3 2 14 62
3 0 63 23
3 20 57 19
3 17 18 58
3 36 49 55
3 27 54 45
3 38 61 46
3 29 55 49
3 8 53 60
3 9 59 53
3 29 47 65
3 30 64 48
3 29 65 41
3 30 42 64
3 25 51 61
3 34 65 47
3 33 48 64
3 31 53 59
3 31 60 53
3 19 57 56
3 18 56 58
3 32 56 57
3 32 58 56

CELL_TYPES 106
5 5 5 5 5 5 5 5 5 5 5 5 5 5 5 5 5 5 5 5 5 5 5 5 5 5 5 5 5 5 5 5 5 5 5 5 5 5 5 5 5 5 5 5 5 5 5 5 5 5 5 5 5 5 5 5 5 5 5 5 5 5 5 5 5 5 5 5 5 5 5 5 5 5 5 5 5 5 5 5 5 5 5 5 5 5 5 5 5 5 5 5 5 5 5 5 5 5 5 5 5 5 5 5 5 5 

POINT_DATA 66
