# vtk DataFile Version 1.0
2D Simulation C++
ASCII
DATASET UNSTRUCTURED_GRID
FIELD FieldData 1
NODES 1 2 int
66 106

POINTS 66 double
0.0 0.0 0.0
0.0 1.0 0.0
1.0 1.0 0.0
1.0 0.0 0.0
0.0 0.224003374577 0.0
0.0 0.448006749153 0.0
0.0 0.608711063862 0.0
0.0 0.769415378571 0.0
0.0 0.884707689285 0.0
0.115292325616 1.0 0.0
0.230584651232 1.0 0.0
0.391288936138 1.0 0.0
0.551993250847 1.0 0.0
0.775996625423 1.0 0.0
1.0 0.789787709713 0.0
1.0 0.579575359821 0.0
1.0 0.41641998291 0.0
1.0 0.253264576197 0.0
1.0 0.126632288098 0.0
0.873367726803 0.0 0.0
0.746735394001 0.0 0.0
0.583580076694 0.0 0.0
0.420424699783 0.0 0.0
0.210212349892 0.0 0.0
0.523204259651 0.490856333765 0.0
0.308896882886 0.693441141123 0.0
0.696498365494 0.282638586249 0.0
0.601910510997 0.743388596782 0.0
0.258712298094 0.402371777086 0.0
0.459888855947 0.251939805193 0.0
0.753029173702 0.563782210214 0.0
0.197464137746 0.803674588703 0.0
0.799470003243 0.19368614197 0.0
0.79015078229 0.772204412472 0.0
0.230153590218 0.212124888268 0.0
0.84983074057 0.332727142696 0.0
0.670622972683 0.128939875402 0.0
0.326301085105 0.86402751849 0.0
0.13649169214 0.67544109767 0.0
0.473856470129 0.636848752697 0.0
0.563105316117 0.351947353561 0.0
0.416742092361 0.389967138595 0.0
0.622330248112 0.588836104631 0.0
0.67611602269 0.881481612689 0.0
0.119121562783 0.325593981922 0.0
0.498479555632 0.875764457205 0.0
0.124468914561 0.503615820762 0.0
0.356124337921 0.137202854261 0.0
0.863890218028 0.649282803619 0.0
0.511034168635 0.121641074947 0.0
0.861163704027 0.493060697785 0.0
0.367415696825 0.532195840534 0.0
0.695646437153 0.44040665129 0.0
0.0987502423724 0.901727242559 0.0
0.439583356681 0.763553087888 0.0
0.581825228078 0.226924958365 0.0
0.89796807118 0.100520409947 0.0
0.794402596482 0.086087025346 0.0
0.90787887528 0.206121581565 0.0
0.198071010886 0.912140870791 0.0
0.0882461117731 0.802875959779 0.0
0.237531257215 0.563827381999 0.0
0.855054106954 0.889669644895 0.0
0.11087498492 0.14591794636 0.0
0.723132218463 0.667094221774 0.0
0.340765936308 0.281378009693 0.0

CELLS 106 424
3 25 31 37
3 25 38 31
3 24 41 51
3 26 52 35
3 24 42 52
3 35 52 50
3 26 32 36
3 26 35 32
3 24 51 39
3 27 43 33
3 28 34 44
3 27 33 64
3 28 65 34
3 17 35 16
3 20 21 36
3 24 52 40
3 28 51 41
3 10 11 37
3 7 38 6
3 30 52 42
3 14 48 33
3 23 34 47
3 12 13 43
3 5 44 4
3 15 50 48
3 22 47 49
3 22 23 47
3 15 48 14
3 27 64 42
3 28 41 65
3 24 39 42
3 33 43 62
3 34 63 44
3 1 53 8
3 1 9 53
3 27 42 39
3 5 46 44
3 12 43 45
3 24 40 41
3 25 37 54
3 29 41 40
3 10 37 59
3 7 60 38
3 20 36 57
3 17 58 35
3 25 61 38
3 32 57 36
3 32 35 58
3 28 44 46
3 27 45 43
3 15 16 50
3 22 49 21
3 31 59 37
3 31 38 60
3 30 50 52
3 29 49 47
3 30 48 50
3 13 62 43
3 4 44 63
3 14 33 62
3 23 63 34
3 21 49 36
3 16 35 50
3 5 6 46
3 12 45 11
3 3 56 18
3 3 19 56
3 28 61 51
3 28 46 61
3 25 39 51
3 11 45 37
3 6 38 46
3 26 40 52
3 26 36 55
3 25 54 39
3 37 45 54
3 26 55 40
3 7 8 60
3 10 59 9
3 27 39 54
3 2 62 13
3 0 4 63
3 29 40 55
3 2 14 62
3 0 63 23
3 20 57 19
3 17 18 58
3 36 49 55
3 27 54 45
3 38 61 46
3 29 55 49
3 8 53 60
3 9 59 53
3 29 47 65
3 30 64 48
3 29 65 41
3 30 42 64
3 25 51 61
3 34 65 47
3 33 48 64
3 31 53 59
3 31 60 53
3 19 57 56
3 18 56 58
3 32 56 57
3 32 58 56

CELL_TYPES 106
5 5 5 5 5 5 5 5 5 5 5 5 5 5 5 5 5 5 5 5 5 5 5 5 5 5 5 5 5 5 5 5 5 5 5 5 5 5 5 5 5 5 5 5 5 5 5 5 5 5 5 5 5 5 5 5 5 5 5 5 5 5 5 5 5 5 5 5 5 5 5 5 5 5 5 5 5 5 5 5 5 5 5 5 5 5 5 5 5 5 5 5 5 5 5 5 5 5 5 5 5 5 5 5 5 5 

POINT_DATA 66
