# vtk DataFile Version 1.0
2D Simulation C++
ASCII
DATASET UNSTRUCTURED_GRID
FIELD FieldData 1
NODES 1 2 int
73 120

POINTS 73 double
0.0 0.0 0.0
0.0 1.0 0.0
1.0 1.0 0.0
1.0 0.0 0.0
0.0 0.224003374577 0.0
0.0 0.448006749153 0.0
0.0 0.608711063862 0.0
0.0 0.769415378571 0.0
0.0 0.884707689285 0.0
0.115292325616 1.0 0.0
0.230584651232 1.0 0.0
0.391288936138 1.0 0.0
0.551993250847 1.0 0.0
0.775996625423 1.0 0.0
1.0 0.789787709713 0.0
1.0 0.579575359821 0.0
1.0 0.41641998291 0.0
1.0 0.253264576197 0.0
1.0 0.126632288098 0.0
0.873367726803 0.0 0.0
0.746735394001 0.0 0.0
0.583580076694 0.0 0.0
0.420424699783 0.0 0.0
0.210212349892 0.0 0.0
0.403122734702 0.59698581487 0.0
0.599315248577 0.400658318977 0.0
0.304830349187 0.311211565147 0.0
0.68842177927 0.695547376643 0.0
0.220286457734 0.779859262686 0.0
0.795841954577 0.204233542225 0.0
0.823107913058 0.421709325177 0.0
0.578509330281 0.177195629704 0.0
0.182734544081 0.579491163184 0.0
0.420133463823 0.81693661756 0.0
0.113350033926 0.886695618369 0.0
0.109104437173 0.775301109106 0.0
0.225208428039 0.890793050807 0.0
0.834880644968 0.842007580234 0.0
0.640977066823 0.861860844695 0.0
0.140529164136 0.361850981186 0.0
0.158188445007 0.165622057314 0.0
0.499176839706 0.500441193776 0.0
0.46426463408 0.365960928338 0.0
0.365267783522 0.466868939907 0.0
0.532912409187 0.634820839695 0.0
0.633395860975 0.534572005473 0.0
0.341292197871 0.138527818971 0.0
0.861430169277 0.658698764271 0.0
0.584036849064 0.281176999531 0.0
0.459818773024 0.230672594616 0.0
0.769149989167 0.539957408339 0.0
0.719257893079 0.416219570191 0.0
0.094228647709 0.664198634889 0.0
0.101019560351 0.517108509183 0.0
0.482388268437 0.897440087189 0.0
0.338034808269 0.904747910648 0.0
0.235573007656 0.460615699426 0.0
0.285046386246 0.577894779988 0.0
0.422439115208 0.714940768192 0.0
0.536539975528 0.766870437831 0.0
0.893535540447 0.106469394087 0.0
0.90289626001 0.223323985437 0.0
0.776690413442 0.0971194630555 0.0
0.910814288627 0.348519328852 0.0
0.899597271884 0.49702118247 0.0
0.502984809371 0.10040767012 0.0
0.651498858272 0.0891899216781 0.0
0.31076367024 0.689554793841 0.0
0.3227091488 0.798053605034 0.0
0.201660149012 0.678154545932 0.0
0.685038139914 0.190412877236 0.0
0.809778620753 0.315123233371 0.0
0.699750008026 0.300731441004 0.0

CELLS 120 480
3 1 34 8
3 34 35 8
3 34 28 35
3 8 35 7
3 1 9 34
3 9 36 34
3 9 10 36
3 34 36 28
3 2 37 13
3 37 38 13
3 37 27 38
3 13 38 12
3 0 4 40
3 4 39 40
3 4 5 39
3 40 39 26
3 24 41 43
3 41 42 43
3 41 25 42
3 43 42 26
3 24 44 41
3 44 45 41
3 44 27 45
3 41 45 25
3 0 40 23
3 40 46 23
3 40 26 46
3 23 46 22
3 2 14 37
3 14 47 37
3 14 15 47
3 37 47 27
3 25 48 42
3 48 49 42
3 48 31 49
3 42 49 26
3 25 45 51
3 45 50 51
3 45 27 50
3 51 50 30
3 5 6 53
3 6 52 53
3 6 7 52
3 53 52 32
3 10 11 55
3 11 54 55
3 11 12 54
3 55 54 33
3 24 43 57
3 43 56 57
3 43 26 56
3 57 56 32
3 24 58 44
3 58 59 44
3 58 33 59
3 44 59 27
3 3 60 18
3 60 61 18
3 60 29 61
3 18 61 17
3 3 19 60
3 19 62 60
3 19 20 62
3 60 62 29
3 5 53 39
3 53 56 39
3 53 32 56
3 39 56 26
3 12 38 54
3 38 59 54
3 38 27 59
3 54 59 33
3 15 16 64
3 16 63 64
3 16 17 63
3 64 63 30
3 20 21 66
3 21 65 66
3 21 22 65
3 66 65 31
3 22 46 65
3 46 49 65
3 46 26 49
3 65 49 31
3 15 64 47
3 64 50 47
3 64 30 50
3 47 50 27
3 24 67 58
3 67 68 58
3 67 28 68
3 58 68 33
3 24 57 67
3 57 69 67
3 57 32 69
3 67 69 28
3 7 35 52
3 35 69 52
3 35 28 69
3 52 69 32
3 10 55 36
3 55 68 36
3 55 33 68
3 36 68 28
3 20 66 62
3 66 70 62
3 66 31 70
3 62 70 29
3 17 61 63
3 61 71 63
3 61 29 71
3 63 71 30
3 25 72 48
3 72 70 48
3 72 29 70
3 48 70 31
3 25 51 72
3 51 71 72
3 51 30 71
3 72 71 29

CELL_TYPES 120
5 5 5 5 5 5 5 5 5 5 5 5 5 5 5 5 5 5 5 5 5 5 5 5 5 5 5 5 5 5 5 5 5 5 5 5 5 5 5 5 5 5 5 5 5 5 5 5 5 5 5 5 5 5 5 5 5 5 5 5 5 5 5 5 5 5 5 5 5 5 5 5 5 5 5 5 5 5 5 5 5 5 5 5 5 5 5 5 5 5 5 5 5 5 5 5 5 5 5 5 5 5 5 5 5 5 5 5 5 5 5 5 5 5 5 5 5 5 5 5 

POINT_DATA 73
