# vtk DataFile Version 1.0
2D Simulation C++
ASCII
DATASET UNSTRUCTURED_GRID
FIELD FieldData 1
NODES 1 2 int
73 120

POINTS 73 double
0.0 0.0 0.0
0.0 1.0 0.0
1.0 1.0 0.0
1.0 0.0 0.0
0.0 0.224003374577 0.0
0.0 0.448006749153 0.0
0.0 0.608711063862 0.0
0.0 0.769415378571 0.0
0.0 0.884707689285 0.0
0.115292325616 1.0 0.0
0.230584651232 1.0 0.0
0.391288936138 1.0 0.0
0.551993250847 1.0 0.0
0.775996625423 1.0 0.0
1.0 0.789787709713 0.0
1.0 0.579575359821 0.0
1.0 0.41641998291 0.0
1.0 0.253264576197 0.0
1.0 0.126632288098 0.0
0.873367726803 0.0 0.0
0.746735394001 0.0 0.0
0.583580076694 0.0 0.0
0.420424699783 0.0 0.0
0.210212349892 0.0 0.0
0.405249806788 0.59477658288 0.0
0.593973993852 0.406049371063 0.0
0.298076911201 0.302521784135 0.0
0.697471638744 0.701970627572 0.0
0.209525376271 0.790512516487 0.0
0.788155111021 0.211874448818 0.0
0.818841229048 0.437696951856 0.0
0.562345235262 0.181163522999 0.0
0.18137911091 0.571336379362 0.0
0.428687438922 0.818669329878 0.0
0.107553204259 0.892467078327 0.0
0.101029795422 0.777931846873 0.0
0.222094520707 0.89899616481 0.0
0.836479344405 0.842213300409 0.0
0.656490352656 0.870113437774 0.0
0.129922959731 0.343514256675 0.0
0.157809459197 0.163519187913 0.0
0.499650036125 0.500369388256 0.0
0.457197987347 0.362742744607 0.0
0.361655723242 0.459532980302 0.0
0.54047131721 0.638387493185 0.0
0.637255257997 0.542844709398 0.0
0.331203103938 0.132473913032 0.0
0.867519278418 0.668824911968 0.0
0.568943598527 0.283088191661 0.0
0.444432414878 0.229226085216 0.0
0.770766036225 0.555611913322 0.0
0.71692191521 0.431101238441 0.0
0.0940225228918 0.65337156979 0.0
0.104147689689 0.508098299433 0.0
0.491914017129 0.895888259517 0.0
0.346649789539 0.906006888841 0.0
0.228001715082 0.451795874278 0.0
0.283014848969 0.572617133624 0.0
0.427403775336 0.717030147597 0.0
0.548213210774 0.77205232231 0.0
0.889566190914 0.110447258986 0.0
0.898718121118 0.23115836424 0.0
0.768863236565 0.101297144555 0.0
0.906189429355 0.361185634636 0.0
0.895605642738 0.507650514385 0.0
0.492378246743 0.104391086862 0.0
0.638838108759 0.093818458392 0.0
0.308307813915 0.69172908301 0.0
0.322207849481 0.803169807107 0.0
0.196871615741 0.677826542826 0.0
0.672005604708 0.196788757025 0.0
0.803231751522 0.3280334336 0.0
0.69041075015 0.309621806094 0.0

CELLS 120 480
3 1 34 8
3 34 35 8
3 34 28 35
3 8 35 7
3 1 9 34
3 9 36 34
3 9 10 36
3 34 36 28
3 2 37 13
3 37 38 13
3 37 27 38
3 13 38 12
3 0 4 40
3 4 39 40
3 4 5 39
3 40 39 26
3 24 41 43
3 41 42 43
3 41 25 42
3 43 42 26
3 24 44 41
3 44 45 41
3 44 27 45
3 41 45 25
3 0 40 23
3 40 46 23
3 40 26 46
3 23 46 22
3 2 14 37
3 14 47 37
3 14 15 47
3 37 47 27
3 25 48 42
3 48 49 42
3 48 31 49
3 42 49 26
3 25 45 51
3 45 50 51
3 45 27 50
3 51 50 30
3 5 6 53
3 6 52 53
3 6 7 52
3 53 52 32
3 10 11 55
3 11 54 55
3 11 12 54
3 55 54 33
3 24 43 57
3 43 56 57
3 43 26 56
3 57 56 32
3 24 58 44
3 58 59 44
3 58 33 59
3 44 59 27
3 3 60 18
3 60 61 18
3 60 29 61
3 18 61 17
3 3 19 60
3 19 62 60
3 19 20 62
3 60 62 29
3 5 53 39
3 53 56 39
3 53 32 56
3 39 56 26
3 12 38 54
3 38 59 54
3 38 27 59
3 54 59 33
3 15 16 64
3 16 63 64
3 16 17 63
3 64 63 30
3 20 21 66
3 21 65 66
3 21 22 65
3 66 65 31
3 22 46 65
3 46 49 65
3 46 26 49
3 65 49 31
3 15 64 47
3 64 50 47
3 64 30 50
3 47 50 27
3 24 67 58
3 67 68 58
3 67 28 68
3 58 68 33
3 24 57 67
3 57 69 67
3 57 32 69
3 67 69 28
3 7 35 52
3 35 69 52
3 35 28 69
3 52 69 32
3 10 55 36
3 55 68 36
3 55 33 68
3 36 68 28
3 20 66 62
3 66 70 62
3 66 31 70
3 62 70 29
3 17 61 63
3 61 71 63
3 61 29 71
3 63 71 30
3 25 72 48
3 72 70 48
3 72 29 70
3 48 70 31
3 25 51 72
3 51 71 72
3 51 30 71
3 72 71 29

CELL_TYPES 120
5 5 5 5 5 5 5 5 5 5 5 5 5 5 5 5 5 5 5 5 5 5 5 5 5 5 5 5 5 5 5 5 5 5 5 5 5 5 5 5 5 5 5 5 5 5 5 5 5 5 5 5 5 5 5 5 5 5 5 5 5 5 5 5 5 5 5 5 5 5 5 5 5 5 5 5 5 5 5 5 5 5 5 5 5 5 5 5 5 5 5 5 5 5 5 5 5 5 5 5 5 5 5 5 5 5 5 5 5 5 5 5 5 5 5 5 5 5 5 5 

POINT_DATA 73
