# vtk DataFile Version 1.0
2D Simulation C++
ASCII
DATASET UNSTRUCTURED_GRID
FIELD FieldData 1
NODES 1 2 int
73 120

POINTS 73 double
0.0 0.0 0.0
0.0 1.0 0.0
1.0 1.0 0.0
1.0 0.0 0.0
0.0 0.224003374577 0.0
0.0 0.448006749153 0.0
0.0 0.608711063862 0.0
0.0 0.769415378571 0.0
0.0 0.884707689285 0.0
0.115292325616 1.0 0.0
0.230584651232 1.0 0.0
0.391288936138 1.0 0.0
0.551993250847 1.0 0.0
0.775996625423 1.0 0.0
1.0 0.789787709713 0.0
1.0 0.579575359821 0.0
1.0 0.41641998291 0.0
1.0 0.253264576197 0.0
1.0 0.126632288098 0.0
0.873367726803 0.0 0.0
0.746735394001 0.0 0.0
0.583580076694 0.0 0.0
0.420424699783 0.0 0.0
0.210212349892 0.0 0.0
0.404869758864 0.595154572232 0.0
0.592571679179 0.40745079685 0.0
0.296817603533 0.302186828577 0.0
0.697818263668 0.703208654449 0.0
0.209460651531 0.790560640244 0.0
0.786755916366 0.213261688563 0.0
0.818273367284 0.439516191606 0.0
0.560509323235 0.1817342593 0.0
0.180690978374 0.570735651841 0.0
0.429278951592 0.819337686933 0.0
0.107529711061 0.892479968513 0.0
0.10085015211 0.777773319574 0.0
0.222238882263 0.899164806363 0.0
0.836794676946 0.8427971336 0.0
0.656926220492 0.870793762785 0.0
0.129223787738 0.343078104747 0.0
0.157214378779 0.163207197148 0.0
0.498806512453 0.501215457539 0.0
0.455614822281 0.36319011568 0.0
0.360587684268 0.459481388602 0.0
0.540532875579 0.639441280171 0.0
0.636821163289 0.544414744184 0.0
0.330304794128 0.132250346553 0.0
0.867751065077 0.669710438647 0.0
0.566978169109 0.284057776719 0.0
0.442725739845 0.229359630205 0.0
0.770645317762 0.557300798005 0.0
0.71595594593 0.433051504404 0.0
0.0936772541988 0.653013246469 0.0
0.103611088757 0.507625173948 0.0
0.492381841484 0.896407332569 0.0
0.346996820386 0.906340425482 0.0
0.227047369613 0.45121349312 0.0
0.282330505858 0.572318451531 0.0
0.427700225005 0.717699655866 0.0
0.548797036277 0.772981994964 0.0
0.888888821421 0.111118907599 0.0
0.897986301793 0.232147974369 0.0
0.767864798885 0.102022364885 0.0
0.90571791662 0.362245528713 0.0
0.895530964367 0.508693814504 0.0
0.491322453991 0.104471149878 0.0
0.637768546332 0.0942877059122 0.0
0.308159226864 0.691866785072 0.0
0.322493737953 0.803564262698 0.0
0.19646225328 0.677526002169 0.0
0.670212186512 0.197900582937 0.0
0.80211333344 0.329811758027 0.0
0.688735187844 0.311287572766 0.0

CELLS 120 480
3 1 34 8
3 34 35 8
3 34 28 35
3 8 35 7
3 1 9 34
3 9 36 34
3 9 10 36
3 34 36 28
3 2 37 13
3 37 38 13
3 37 27 38
3 13 38 12
3 0 4 40
3 4 39 40
3 4 5 39
3 40 39 26
3 24 41 43
3 41 42 43
3 41 25 42
3 43 42 26
3 24 44 41
3 44 45 41
3 44 27 45
3 41 45 25
3 0 40 23
3 40 46 23
3 40 26 46
3 23 46 22
3 2 14 37
3 14 47 37
3 14 15 47
3 37 47 27
3 25 48 42
3 48 49 42
3 48 31 49
3 42 49 26
3 25 45 51
3 45 50 51
3 45 27 50
3 51 50 30
3 5 6 53
3 6 52 53
3 6 7 52
3 53 52 32
3 10 11 55
3 11 54 55
3 11 12 54
3 55 54 33
3 24 43 57
3 43 56 57
3 43 26 56
3 57 56 32
3 24 58 44
3 58 59 44
3 58 33 59
3 44 59 27
3 3 60 18
3 60 61 18
3 60 29 61
3 18 61 17
3 3 19 60
3 19 62 60
3 19 20 62
3 60 62 29
3 5 53 39
3 53 56 39
3 53 32 56
3 39 56 26
3 12 38 54
3 38 59 54
3 38 27 59
3 54 59 33
3 15 16 64
3 16 63 64
3 16 17 63
3 64 63 30
3 20 21 66
3 21 65 66
3 21 22 65
3 66 65 31
3 22 46 65
3 46 49 65
3 46 26 49
3 65 49 31
3 15 64 47
3 64 50 47
3 64 30 50
3 47 50 27
3 24 67 58
3 67 68 58
3 67 28 68
3 58 68 33
3 24 57 67
3 57 69 67
3 57 32 69
3 67 69 28
3 7 35 52
3 35 69 52
3 35 28 69
3 52 69 32
3 10 55 36
3 55 68 36
3 55 33 68
3 36 68 28
3 20 66 62
3 66 70 62
3 66 31 70
3 62 70 29
3 17 61 63
3 61 71 63
3 61 29 71
3 63 71 30
3 25 72 48
3 72 70 48
3 72 29 70
3 48 70 31
3 25 51 72
3 51 71 72
3 51 30 71
3 72 71 29

CELL_TYPES 120
5 5 5 5 5 5 5 5 5 5 5 5 5 5 5 5 5 5 5 5 5 5 5 5 5 5 5 5 5 5 5 5 5 5 5 5 5 5 5 5 5 5 5 5 5 5 5 5 5 5 5 5 5 5 5 5 5 5 5 5 5 5 5 5 5 5 5 5 5 5 5 5 5 5 5 5 5 5 5 5 5 5 5 5 5 5 5 5 5 5 5 5 5 5 5 5 5 5 5 5 5 5 5 5 5 5 5 5 5 5 5 5 5 5 5 5 5 5 5 5 

POINT_DATA 73
