# vtk DataFile Version 1.0
2D Simulation C++
ASCII
DATASET UNSTRUCTURED_GRID
FIELD FieldData 1
NODES 1 2 int
73 120

POINTS 73 double
0.0 0.0 0.0
0.0 1.0 0.0
1.0 1.0 0.0
1.0 0.0 0.0
0.0 0.224003374577 0.0
0.0 0.448006749153 0.0
0.0 0.608711063862 0.0
0.0 0.769415378571 0.0
0.0 0.884707689285 0.0
0.115292325616 1.0 0.0
0.230584651232 1.0 0.0
0.391288936138 1.0 0.0
0.551993250847 1.0 0.0
0.775996625423 1.0 0.0
1.0 0.789787709713 0.0
1.0 0.579575359821 0.0
1.0 0.41641998291 0.0
1.0 0.253264576197 0.0
1.0 0.126632288098 0.0
0.873367726803 0.0 0.0
0.746735394001 0.0 0.0
0.583580076694 0.0 0.0
0.420424699783 0.0 0.0
0.210212349892 0.0 0.0
0.404970258279 0.595055190525 0.0
0.592865532356 0.407157794875 0.0
0.297063018959 0.302216045417 0.0
0.697787418227 0.70296684299 0.0
0.209472440733 0.790551818235 0.0
0.787026720339 0.212993032478 0.0
0.818401666408 0.439175668326 0.0
0.560853163318 0.181605387316 0.0
0.180830114239 0.570822682088 0.0
0.429193395134 0.819202395015 0.0
0.107530964786 0.892480396039 0.0
0.100881083826 0.777799629869 0.0
0.222214678422 0.899136025786 0.0
0.836751098798 0.842686912746 0.0
0.656865575395 0.870660734319 0.0
0.129359707448 0.343138647924 0.0
0.15732639624 0.163250164393 0.0
0.499001067371 0.501021303935 0.0
0.455933154234 0.363067354249 0.0
0.360812400668 0.459452589451 0.0
0.540560718758 0.639219378832 0.0
0.636942388318 0.544099216101 0.0
0.330472427733 0.132273102511 0.0
0.86772705926 0.669545050475 0.0
0.567359739637 0.283845890388 0.0
0.443049659384 0.229304560594 0.0
0.770698535577 0.556980272029 0.0
0.716167505871 0.432673103626 0.0
0.0937448698302 0.65306753886 0.0
0.103718219207 0.50769386752 0.0
0.492313838453 0.896303147441 0.0
0.346944146344 0.906275267699 0.0
0.227240243842 0.451288574858 0.0
0.282475679593 0.572346846814 0.0
0.427672626012 0.717557611283 0.0
0.54872186471 0.772793243233 0.0
0.889018206068 0.110990579898 0.0
0.898129803728 0.23196180277 0.0
0.768052706378 0.10187990079 0.0
0.905815738352 0.362049153112 0.0
0.895559763323 0.508500992606 0.0
0.49151763351 0.104441443323 0.0
0.63796685741 0.0941900773319 0.0
0.308200133509 0.691828310064 0.0
0.322452614113 0.803486607319 0.0
0.196543130026 0.677569586945 0.0
0.670553302031 0.197674913994 0.0
0.802340016236 0.329473606932 0.0
0.689068407912 0.310956320026 0.0

CELLS 120 480
3 1 34 8
3 34 35 8
3 34 28 35
3 8 35 7
3 1 9 34
3 9 36 34
3 9 10 36
3 34 36 28
3 2 37 13
3 37 38 13
3 37 27 38
3 13 38 12
3 0 4 40
3 4 39 40
3 4 5 39
3 40 39 26
3 24 41 43
3 41 42 43
3 41 25 42
3 43 42 26
3 24 44 41
3 44 45 41
3 44 27 45
3 41 45 25
3 0 40 23
3 40 46 23
3 40 26 46
3 23 46 22
3 2 14 37
3 14 47 37
3 14 15 47
3 37 47 27
3 25 48 42
3 48 49 42
3 48 31 49
3 42 49 26
3 25 45 51
3 45 50 51
3 45 27 50
3 51 50 30
3 5 6 53
3 6 52 53
3 6 7 52
3 53 52 32
3 10 11 55
3 11 54 55
3 11 12 54
3 55 54 33
3 24 43 57
3 43 56 57
3 43 26 56
3 57 56 32
3 24 58 44
3 58 59 44
3 58 33 59
3 44 59 27
3 3 60 18
3 60 61 18
3 60 29 61
3 18 61 17
3 3 19 60
3 19 62 60
3 19 20 62
3 60 62 29
3 5 53 39
3 53 56 39
3 53 32 56
3 39 56 26
3 12 38 54
3 38 59 54
3 38 27 59
3 54 59 33
3 15 16 64
3 16 63 64
3 16 17 63
3 64 63 30
3 20 21 66
3 21 65 66
3 21 22 65
3 66 65 31
3 22 46 65
3 46 49 65
3 46 26 49
3 65 49 31
3 15 64 47
3 64 50 47
3 64 30 50
3 47 50 27
3 24 67 58
3 67 68 58
3 67 28 68
3 58 68 33
3 24 57 67
3 57 69 67
3 57 32 69
3 67 69 28
3 7 35 52
3 35 69 52
3 35 28 69
3 52 69 32
3 10 55 36
3 55 68 36
3 55 33 68
3 36 68 28
3 20 66 62
3 66 70 62
3 66 31 70
3 62 70 29
3 17 61 63
3 61 71 63
3 61 29 71
3 63 71 30
3 25 72 48
3 72 70 48
3 72 29 70
3 48 70 31
3 25 51 72
3 51 71 72
3 51 30 71
3 72 71 29

CELL_TYPES 120
5 5 5 5 5 5 5 5 5 5 5 5 5 5 5 5 5 5 5 5 5 5 5 5 5 5 5 5 5 5 5 5 5 5 5 5 5 5 5 5 5 5 5 5 5 5 5 5 5 5 5 5 5 5 5 5 5 5 5 5 5 5 5 5 5 5 5 5 5 5 5 5 5 5 5 5 5 5 5 5 5 5 5 5 5 5 5 5 5 5 5 5 5 5 5 5 5 5 5 5 5 5 5 5 5 5 5 5 5 5 5 5 5 5 5 5 5 5 5 5 

POINT_DATA 73
