# vtk DataFile Version 1.0
2D Simulation C++
ASCII
DATASET UNSTRUCTURED_GRID
FIELD FieldData 1
NODES 1 2 int
73 120

POINTS 73 double
0.0 0.0 0.0
0.0 1.0 0.0
1.0 1.0 0.0
1.0 0.0 0.0
0.0 0.224003374577 0.0
0.0 0.448006749153 0.0
0.0 0.608711063862 0.0
0.0 0.769415378571 0.0
0.0 0.884707689285 0.0
0.115292325616 1.0 0.0
0.230584651232 1.0 0.0
0.391288936138 1.0 0.0
0.551993250847 1.0 0.0
0.775996625423 1.0 0.0
1.0 0.789787709713 0.0
1.0 0.579575359821 0.0
1.0 0.41641998291 0.0
1.0 0.253264576197 0.0
1.0 0.126632288098 0.0
0.873367726803 0.0 0.0
0.746735394001 0.0 0.0
0.583580076694 0.0 0.0
0.420424699783 0.0 0.0
0.210212349892 0.0 0.0
0.405385445857 0.594634038777 0.0
0.59518272095 0.40483158793 0.0
0.299373587047 0.303254799239 0.0
0.696718542107 0.700706528937 0.0
0.209729383028 0.790329776582 0.0
0.789601230403 0.210443422303 0.0
0.819293874224 0.435644833757 0.0
0.564411761016 0.180712343788 0.0
0.182020664247 0.572259339507 0.0
0.427777562226 0.818044195712 0.0
0.107691561992 0.892345743876 0.0
0.101333148256 0.77808455904 0.0
0.221969164576 0.898701245277 0.0
0.835952415012 0.841579369515 0.0
0.655748850485 0.869427480054 0.0
0.130644649477 0.344263130353 0.0
0.158461693415 0.16404652737 0.0
0.500186280585 0.49981716174 0.0
0.458714581597 0.362656221797 0.0
0.362573005639 0.459993178187 0.0
0.53998688909 0.63748678237 0.0
0.637313703072 0.541336387489 0.0
0.332219220717 0.132912004368 0.0
0.86706947145 0.667824503154 0.0
0.570982493389 0.28232371733 0.0
0.446303422233 0.229360714376 0.0
0.77061121093 0.553758581824 0.0
0.717681039079 0.42907351923 0.0
0.0943802112677 0.65390243044 0.0
0.10465205328 0.508868074999 0.0
0.491156484088 0.89540797276 0.0
0.346141819007 0.905653112757 0.0
0.228899017391 0.452821782078 0.0
0.283614656021 0.573193758161 0.0
0.426824902055 0.716442379767 0.0
0.547182670501 0.77119566919 0.0
0.890282312009 0.109737053381 0.0
0.899461176836 0.230063827773 0.0
0.769965489838 0.100564487095 0.0
0.90664855453 0.359960863113 0.0
0.895578539785 0.506437425963 0.0
0.493603504306 0.104412697994 0.0
0.640070606006 0.0933670017639 0.0
0.308426196894 0.691618045765 0.0
0.321850185949 0.802701398307 0.0
0.197346588982 0.678206898748 0.0
0.673943322219 0.195732081667 0.0
0.804302213818 0.326110354456 0.0
0.692052010393 0.307991944873 0.0

CELLS 120 480
3 1 34 8
3 34 35 8
3 34 28 35
3 8 35 7
3 1 9 34
3 9 36 34
3 9 10 36
3 34 36 28
3 2 37 13
3 37 38 13
3 37 27 38
3 13 38 12
3 0 4 40
3 4 39 40
3 4 5 39
3 40 39 26
3 24 41 43
3 41 42 43
3 41 25 42
3 43 42 26
3 24 44 41
3 44 45 41
3 44 27 45
3 41 45 25
3 0 40 23
3 40 46 23
3 40 26 46
3 23 46 22
3 2 14 37
3 14 47 37
3 14 15 47
3 37 47 27
3 25 48 42
3 48 49 42
3 48 31 49
3 42 49 26
3 25 45 51
3 45 50 51
3 45 27 50
3 51 50 30
3 5 6 53
3 6 52 53
3 6 7 52
3 53 52 32
3 10 11 55
3 11 54 55
3 11 12 54
3 55 54 33
3 24 43 57
3 43 56 57
3 43 26 56
3 57 56 32
3 24 58 44
3 58 59 44
3 58 33 59
3 44 59 27
3 3 60 18
3 60 61 18
3 60 29 61
3 18 61 17
3 3 19 60
3 19 62 60
3 19 20 62
3 60 62 29
3 5 53 39
3 53 56 39
3 53 32 56
3 39 56 26
3 12 38 54
3 38 59 54
3 38 27 59
3 54 59 33
3 15 16 64
3 16 63 64
3 16 17 63
3 64 63 30
3 20 21 66
3 21 65 66
3 21 22 65
3 66 65 31
3 22 46 65
3 46 49 65
3 46 26 49
3 65 49 31
3 15 64 47
3 64 50 47
3 64 30 50
3 47 50 27
3 24 67 58
3 67 68 58
3 67 28 68
3 58 68 33
3 24 57 67
3 57 69 67
3 57 32 69
3 67 69 28
3 7 35 52
3 35 69 52
3 35 28 69
3 52 69 32
3 10 55 36
3 55 68 36
3 55 33 68
3 36 68 28
3 20 66 62
3 66 70 62
3 66 31 70
3 62 70 29
3 17 61 63
3 61 71 63
3 61 29 71
3 63 71 30
3 25 72 48
3 72 70 48
3 72 29 70
3 48 70 31
3 25 51 72
3 51 71 72
3 51 30 71
3 72 71 29

CELL_TYPES 120
5 5 5 5 5 5 5 5 5 5 5 5 5 5 5 5 5 5 5 5 5 5 5 5 5 5 5 5 5 5 5 5 5 5 5 5 5 5 5 5 5 5 5 5 5 5 5 5 5 5 5 5 5 5 5 5 5 5 5 5 5 5 5 5 5 5 5 5 5 5 5 5 5 5 5 5 5 5 5 5 5 5 5 5 5 5 5 5 5 5 5 5 5 5 5 5 5 5 5 5 5 5 5 5 5 5 5 5 5 5 5 5 5 5 5 5 5 5 5 5 

POINT_DATA 73
