# vtk DataFile Version 1.0
2D Simulation C++
ASCII
DATASET UNSTRUCTURED_GRID
FIELD FieldData 1
NODES 1 2 int
73 120

POINTS 73 double
0.0 0.0 0.0
0.0 1.0 0.0
1.0 1.0 0.0
1.0 0.0 0.0
0.0 0.224003374577 0.0
0.0 0.448006749153 0.0
0.0 0.608711063862 0.0
0.0 0.769415378571 0.0
0.0 0.884707689285 0.0
0.115292325616 1.0 0.0
0.230584651232 1.0 0.0
0.391288936138 1.0 0.0
0.551993250847 1.0 0.0
0.775996625423 1.0 0.0
1.0 0.789787709713 0.0
1.0 0.579575359821 0.0
1.0 0.41641998291 0.0
1.0 0.253264576197 0.0
1.0 0.126632288098 0.0
0.873367726803 0.0 0.0
0.746735394001 0.0 0.0
0.583580076694 0.0 0.0
0.420424699783 0.0 0.0
0.210212349892 0.0 0.0
0.405346489906 0.594677284333 0.0
0.594639204097 0.405380765041 0.0
0.298761939471 0.302867900545 0.0
0.69711596013 0.701301089928 0.0
0.209604833344 0.790443678064 0.0
0.7889205683 0.21111659686 0.0
0.819087733429 0.436635161881 0.0
0.563415140941 0.180916821402 0.0
0.181728019216 0.571792933515 0.0
0.428237620002 0.818330124672 0.0
0.107605582685 0.892422856079 0.0
0.10116954231 0.778019580717 0.0
0.222019134358 0.898861568401 0.0
0.836223428932 0.841880937834 0.0
0.656133937478 0.869748759719 0.0
0.130303712715 0.343873021644 0.0
0.158150514367 0.163774261535 0.0
0.499969877041 0.50004299017 0.0
0.458012344619 0.362658249232 0.0
0.362160514124 0.459733655607 0.0
0.540259737271 0.637890961243 0.0
0.637326811574 0.542035726464 0.0
0.331728969115 0.132685200465 0.0
0.867302079071 0.668307152882 0.0
0.570019041852 0.282660677649 0.0
0.445406254485 0.229273041144 0.0
0.770709162172 0.554647710481 0.0
0.717346412865 0.430032428102 0.0
0.0942117020069 0.653634302974 0.0
0.104422118614 0.508470651972 0.0
0.491547073819 0.895625930112 0.0
0.346397288468 0.905821541907 0.0
0.228485969654 0.452290465573 0.0
0.283341629936 0.572897960805 0.0
0.427122346267 0.716710109693 0.0
0.547716837908 0.771586838681 0.0
0.889943873627 0.110072790525 0.0
0.899112203606 0.23058848893 0.0
0.769437464368 0.100908143193 0.0
0.906430492109 0.360555675501 0.0
0.89559636942 0.507027562476 0.0
0.493007904662 0.104397281369 0.0
0.639472563785 0.093580646176 0.0
0.3083648241 0.691676323047 0.0
0.322016004223 0.802935507589 0.0
0.197110984242 0.678029132261 0.0
0.673019624092 0.196221916511 0.0
0.803804680258 0.32702727826 0.0
0.691288221353 0.308749925989 0.0

CELLS 120 480
3 1 34 8
3 34 35 8
3 34 28 35
3 8 35 7
3 1 9 34
3 9 36 34
3 9 10 36
3 34 36 28
3 2 37 13
3 37 38 13
3 37 27 38
3 13 38 12
3 0 4 40
3 4 39 40
3 4 5 39
3 40 39 26
3 24 41 43
3 41 42 43
3 41 25 42
3 43 42 26
3 24 44 41
3 44 45 41
3 44 27 45
3 41 45 25
3 0 40 23
3 40 46 23
3 40 26 46
3 23 46 22
3 2 14 37
3 14 47 37
3 14 15 47
3 37 47 27
3 25 48 42
3 48 49 42
3 48 31 49
3 42 49 26
3 25 45 51
3 45 50 51
3 45 27 50
3 51 50 30
3 5 6 53
3 6 52 53
3 6 7 52
3 53 52 32
3 10 11 55
3 11 54 55
3 11 12 54
3 55 54 33
3 24 43 57
3 43 56 57
3 43 26 56
3 57 56 32
3 24 58 44
3 58 59 44
3 58 33 59
3 44 59 27
3 3 60 18
3 60 61 18
3 60 29 61
3 18 61 17
3 3 19 60
3 19 62 60
3 19 20 62
3 60 62 29
3 5 53 39
3 53 56 39
3 53 32 56
3 39 56 26
3 12 38 54
3 38 59 54
3 38 27 59
3 54 59 33
3 15 16 64
3 16 63 64
3 16 17 63
3 64 63 30
3 20 21 66
3 21 65 66
3 21 22 65
3 66 65 31
3 22 46 65
3 46 49 65
3 46 26 49
3 65 49 31
3 15 64 47
3 64 50 47
3 64 30 50
3 47 50 27
3 24 67 58
3 67 68 58
3 67 28 68
3 58 68 33
3 24 57 67
3 57 69 67
3 57 32 69
3 67 69 28
3 7 35 52
3 35 69 52
3 35 28 69
3 52 69 32
3 10 55 36
3 55 68 36
3 55 33 68
3 36 68 28
3 20 66 62
3 66 70 62
3 66 31 70
3 62 70 29
3 17 61 63
3 61 71 63
3 61 29 71
3 63 71 30
3 25 72 48
3 72 70 48
3 72 29 70
3 48 70 31
3 25 51 72
3 51 71 72
3 51 30 71
3 72 71 29

CELL_TYPES 120
5 5 5 5 5 5 5 5 5 5 5 5 5 5 5 5 5 5 5 5 5 5 5 5 5 5 5 5 5 5 5 5 5 5 5 5 5 5 5 5 5 5 5 5 5 5 5 5 5 5 5 5 5 5 5 5 5 5 5 5 5 5 5 5 5 5 5 5 5 5 5 5 5 5 5 5 5 5 5 5 5 5 5 5 5 5 5 5 5 5 5 5 5 5 5 5 5 5 5 5 5 5 5 5 5 5 5 5 5 5 5 5 5 5 5 5 5 5 5 5 

POINT_DATA 73
