# vtk DataFile Version 1.0
2D Simulation C++
ASCII
DATASET UNSTRUCTURED_GRID
FIELD FieldData 1
NODES 1 2 int
73 120

POINTS 73 double
0.0 0.0 0.0
0.0 1.0 0.0
1.0 1.0 0.0
1.0 0.0 0.0
0.0 0.224003374577 0.0
0.0 0.448006749153 0.0
0.0 0.608711063862 0.0
0.0 0.769415378571 0.0
0.0 0.884707689285 0.0
0.115292325616 1.0 0.0
0.230584651232 1.0 0.0
0.391288936138 1.0 0.0
0.551993250847 1.0 0.0
0.775996625423 1.0 0.0
1.0 0.789787709713 0.0
1.0 0.579575359821 0.0
1.0 0.41641998291 0.0
1.0 0.253264576197 0.0
1.0 0.126632288098 0.0
0.873367726803 0.0 0.0
0.746735394001 0.0 0.0
0.583580076694 0.0 0.0
0.420424699783 0.0 0.0
0.210212349892 0.0 0.0
0.404923593686 0.595101357927 0.0
0.592724799417 0.40729815642 0.0
0.296944338235 0.30219945313 0.0
0.697804840862 0.703083755293 0.0
0.209467078567 0.790555729808 0.0
0.786895608023 0.21312309657 0.0
0.818340974594 0.439341230462 0.0
0.560685996159 0.181666366402 0.0
0.180763200035 0.57077844617 0.0
0.429236903008 0.819267443411 0.0
0.107530363051 0.892480164265 0.0
0.100866079164 0.777786392956 0.0
0.222226864598 0.899149985336 0.0
0.836773365385 0.842740465194 0.0
0.656896502067 0.870725069055 0.0
0.129293937789 0.343107769712 0.0
0.157271955064 0.163228202895 0.0
0.498909041067 0.501113188999 0.0
0.455779865595 0.363124265308 0.0
0.360704871774 0.459463807451 0.0
0.540550022681 0.639325553685 0.0
0.636886284363 0.544251162505 0.0
0.330390883991 0.132260639341 0.0
0.867740152136 0.669625493363 0.0
0.567175111194 0.283946750411 0.0
0.442892468702 0.22932910884 0.0
0.770674927428 0.557135814815 0.0
0.716066833898 0.432856208965 0.0
0.0937122563639 0.653040163672 0.0
0.103666551668 0.507659084908 0.0
0.492348272639 0.896353364208 0.0
0.346970710605 0.906306692997 0.0
0.227147419957 0.45124964289 0.0
0.282406402325 0.572330884604 0.0
0.427688227089 0.71762538853 0.0
0.548760855675 0.7728840424 0.0
0.888955441392 0.111052828778 0.0
0.898060475916 0.232052277457 0.0
0.767961390033 0.10194871464 0.0
0.90576893598 0.362144755779 0.0
0.895546927249 0.508594895196 0.0
0.491422582666 0.104454732503 0.0
0.637870317636 0.0942367784583 0.0
0.308181490896 0.691845793913 0.0
0.322473804168 0.803523847709 0.0
0.196504341223 0.677547187851 0.0
0.670387774131 0.197783400633 0.0
0.802231032006 0.329637700074 0.0
0.688907694571 0.311116089317 0.0

CELLS 120 480
3 1 34 8
3 34 35 8
3 34 28 35
3 8 35 7
3 1 9 34
3 9 36 34
3 9 10 36
3 34 36 28
3 2 37 13
3 37 38 13
3 37 27 38
3 13 38 12
3 0 4 40
3 4 39 40
3 4 5 39
3 40 39 26
3 24 41 43
3 41 42 43
3 41 25 42
3 43 42 26
3 24 44 41
3 44 45 41
3 44 27 45
3 41 45 25
3 0 40 23
3 40 46 23
3 40 26 46
3 23 46 22
3 2 14 37
3 14 47 37
3 14 15 47
3 37 47 27
3 25 48 42
3 48 49 42
3 48 31 49
3 42 49 26
3 25 45 51
3 45 50 51
3 45 27 50
3 51 50 30
3 5 6 53
3 6 52 53
3 6 7 52
3 53 52 32
3 10 11 55
3 11 54 55
3 11 12 54
3 55 54 33
3 24 43 57
3 43 56 57
3 43 26 56
3 57 56 32
3 24 58 44
3 58 59 44
3 58 33 59
3 44 59 27
3 3 60 18
3 60 61 18
3 60 29 61
3 18 61 17
3 3 19 60
3 19 62 60
3 19 20 62
3 60 62 29
3 5 53 39
3 53 56 39
3 53 32 56
3 39 56 26
3 12 38 54
3 38 59 54
3 38 27 59
3 54 59 33
3 15 16 64
3 16 63 64
3 16 17 63
3 64 63 30
3 20 21 66
3 21 65 66
3 21 22 65
3 66 65 31
3 22 46 65
3 46 49 65
3 46 26 49
3 65 49 31
3 15 64 47
3 64 50 47
3 64 30 50
3 47 50 27
3 24 67 58
3 67 68 58
3 67 28 68
3 58 68 33
3 24 57 67
3 57 69 67
3 57 32 69
3 67 69 28
3 7 35 52
3 35 69 52
3 35 28 69
3 52 69 32
3 10 55 36
3 55 68 36
3 55 33 68
3 36 68 28
3 20 66 62
3 66 70 62
3 66 31 70
3 62 70 29
3 17 61 63
3 61 71 63
3 61 29 71
3 63 71 30
3 25 72 48
3 72 70 48
3 72 29 70
3 48 70 31
3 25 51 72
3 51 71 72
3 51 30 71
3 72 71 29

CELL_TYPES 120
5 5 5 5 5 5 5 5 5 5 5 5 5 5 5 5 5 5 5 5 5 5 5 5 5 5 5 5 5 5 5 5 5 5 5 5 5 5 5 5 5 5 5 5 5 5 5 5 5 5 5 5 5 5 5 5 5 5 5 5 5 5 5 5 5 5 5 5 5 5 5 5 5 5 5 5 5 5 5 5 5 5 5 5 5 5 5 5 5 5 5 5 5 5 5 5 5 5 5 5 5 5 5 5 5 5 5 5 5 5 5 5 5 5 5 5 5 5 5 5 

POINT_DATA 73
