# vtk DataFile Version 1.0
2D Simulation C++
ASCII
DATASET UNSTRUCTURED_GRID
FIELD FieldData 1
NODES 1 2 int
73 120

POINTS 73 double
0.0 0.0 0.0
0.0 1.0 0.0
1.0 1.0 0.0
1.0 0.0 0.0
0.0 0.224003374577 0.0
0.0 0.448006749153 0.0
0.0 0.608711063862 0.0
0.0 0.769415378571 0.0
0.0 0.884707689285 0.0
0.115292325616 1.0 0.0
0.230584651232 1.0 0.0
0.391288936138 1.0 0.0
0.551993250847 1.0 0.0
0.775996625423 1.0 0.0
1.0 0.789787709713 0.0
1.0 0.579575359821 0.0
1.0 0.41641998291 0.0
1.0 0.253264576197 0.0
1.0 0.126632288098 0.0
0.873367726803 0.0 0.0
0.746735394001 0.0 0.0
0.583580076694 0.0 0.0
0.420424699783 0.0 0.0
0.210212349892 0.0 0.0
0.404849485896 0.595174601365 0.0
0.592516301997 0.407505981927 0.0
0.29677237371 0.302183643275 0.0
0.697821711033 0.703253241497 0.0
0.209458118248 0.790562640363 0.0
0.786706147477 0.21331106967 0.0
0.818248496689 0.439578165036 0.0
0.560446740154 0.181759224902 0.0
0.180664994951 0.570721548692 0.0
0.429292795608 0.819362968624 0.0
0.107529442828 0.892479944416 0.0
0.100844458345 0.777768959405 0.0
0.222242881335 0.899170108534 0.0
0.836801647345 0.842817222629 0.0
0.656935975743 0.870818272364 0.0
0.129198776168 0.343068367912 0.0
0.157193975467 0.163200330041 0.0
0.498768816713 0.501253033171 0.0
0.455555572092 0.363214935454 0.0
0.360545245957 0.459489124791 0.0
0.540525263262 0.63948319267 0.0
0.636796570357 0.544473465625 0.0
0.330274322083 0.132247458662 0.0
0.867754160596 0.669740509878 0.0
0.566907940281 0.284098265726 0.0
0.442666523951 0.229371650216 0.0
0.770633599152 0.557359394645 0.0
0.715915489616 0.433121140897 0.0
0.0936647040205 0.653004251905 0.0
0.103591222296 0.50761390678 0.0
0.492392993095 0.896426678957 0.0
0.347005540488 0.906352523412 0.0
0.227011423601 0.451202000984 0.0
0.282302899996 0.572315241134 0.0
0.427703267283 0.717726673709 0.0
0.548808530524 0.773017207222 0.0
0.888865151896 0.111142386515 0.0
0.897959791818 0.232181891274 0.0
0.767830564409 0.10204869359 0.0
0.905699426706 0.362281158732 0.0
0.895524669169 0.508728773382 0.0
0.49128706813 0.10447759906 0.0
0.637732561183 0.0943061659432 0.0
0.308150620472 0.691874928622 0.0
0.322500107392 0.803578895496 0.0
0.196447019776 0.677519195052 0.0
0.670149825153 0.197942753113 0.0
0.802070981464 0.329873574484 0.0
0.688673396378 0.31134899474 0.0

CELLS 120 480
3 1 34 8
3 34 35 8
3 34 28 35
3 8 35 7
3 1 9 34
3 9 36 34
3 9 10 36
3 34 36 28
3 2 37 13
3 37 38 13
3 37 27 38
3 13 38 12
3 0 4 40
3 4 39 40
3 4 5 39
3 40 39 26
3 24 41 43
3 41 42 43
3 41 25 42
3 43 42 26
3 24 44 41
3 44 45 41
3 44 27 45
3 41 45 25
3 0 40 23
3 40 46 23
3 40 26 46
3 23 46 22
3 2 14 37
3 14 47 37
3 14 15 47
3 37 47 27
3 25 48 42
3 48 49 42
3 48 31 49
3 42 49 26
3 25 45 51
3 45 50 51
3 45 27 50
3 51 50 30
3 5 6 53
3 6 52 53
3 6 7 52
3 53 52 32
3 10 11 55
3 11 54 55
3 11 12 54
3 55 54 33
3 24 43 57
3 43 56 57
3 43 26 56
3 57 56 32
3 24 58 44
3 58 59 44
3 58 33 59
3 44 59 27
3 3 60 18
3 60 61 18
3 60 29 61
3 18 61 17
3 3 19 60
3 19 62 60
3 19 20 62
3 60 62 29
3 5 53 39
3 53 56 39
3 53 32 56
3 39 56 26
3 12 38 54
3 38 59 54
3 38 27 59
3 54 59 33
3 15 16 64
3 16 63 64
3 16 17 63
3 64 63 30
3 20 21 66
3 21 65 66
3 21 22 65
3 66 65 31
3 22 46 65
3 46 49 65
3 46 26 49
3 65 49 31
3 15 64 47
3 64 50 47
3 64 30 50
3 47 50 27
3 24 67 58
3 67 68 58
3 67 28 68
3 58 68 33
3 24 57 67
3 57 69 67
3 57 32 69
3 67 69 28
3 7 35 52
3 35 69 52
3 35 28 69
3 52 69 32
3 10 55 36
3 55 68 36
3 55 33 68
3 36 68 28
3 20 66 62
3 66 70 62
3 66 31 70
3 62 70 29
3 17 61 63
3 61 71 63
3 61 29 71
3 63 71 30
3 25 72 48
3 72 70 48
3 72 29 70
3 48 70 31
3 25 51 72
3 51 71 72
3 51 30 71
3 72 71 29

CELL_TYPES 120
5 5 5 5 5 5 5 5 5 5 5 5 5 5 5 5 5 5 5 5 5 5 5 5 5 5 5 5 5 5 5 5 5 5 5 5 5 5 5 5 5 5 5 5 5 5 5 5 5 5 5 5 5 5 5 5 5 5 5 5 5 5 5 5 5 5 5 5 5 5 5 5 5 5 5 5 5 5 5 5 5 5 5 5 5 5 5 5 5 5 5 5 5 5 5 5 5 5 5 5 5 5 5 5 5 5 5 5 5 5 5 5 5 5 5 5 5 5 5 5 

POINT_DATA 73
