# vtk DataFile Version 1.0
2D Simulation C++
ASCII
DATASET UNSTRUCTURED_GRID
FIELD FieldData 1
NODES 1 2 int
66 106

POINTS 66 double
0.0 0.0 0.0
0.0 1.0 0.0
1.0 1.0 0.0
1.0 0.0 0.0
0.0 0.224003374577 0.0
0.0 0.448006749153 0.0
0.0 0.608711063862 0.0
0.0 0.769415378571 0.0
0.0 0.884707689285 0.0
0.115292325616 1.0 0.0
0.230584651232 1.0 0.0
0.391288936138 1.0 0.0
0.551993250847 1.0 0.0
0.775996625423 1.0 0.0
1.0 0.789787709713 0.0
1.0 0.579575359821 0.0
1.0 0.41641998291 0.0
1.0 0.253264576197 0.0
1.0 0.126632288098 0.0
0.873367726803 0.0 0.0
0.746735394001 0.0 0.0
0.583580076694 0.0 0.0
0.420424699783 0.0 0.0
0.210212349892 0.0 0.0
0.531278229065 0.486143495577 0.0
0.317419457181 0.6862703301 0.0
0.698226282086 0.281962622255 0.0
0.609292166736 0.741990900606 0.0
0.26402683501 0.394977949276 0.0
0.462731175778 0.2471855973 0.0
0.75898781172 0.564230102593 0.0
0.203241013489 0.798158047805 0.0
0.799259719891 0.194253418053 0.0
0.794290266255 0.772881053616 0.0
0.232008856792 0.207786976983 0.0
0.851183714245 0.333111309892 0.0
0.670584622135 0.128507076651 0.0
0.331397893962 0.860330146761 0.0
0.141350166315 0.670042417607 0.0
0.483571883156 0.631670772931 0.0
0.567618256161 0.348368787914 0.0
0.422904675328 0.383084346006 0.0
0.630715542695 0.587290481146 0.0
0.679322692698 0.881604581867 0.0
0.12092984094 0.322028554053 0.0
0.50300743438 0.874319174427 0.0
0.127942128016 0.498564627963 0.0
0.357323806474 0.133802696254 0.0
0.867449998913 0.650087689535 0.0
0.511594199008 0.119537201938 0.0
0.863949475273 0.493709462504 0.0
0.376285097395 0.524204321764 0.0
0.70072709113 0.439542882481 0.0
0.101422430492 0.899003790098 0.0
0.447841337473 0.759233758416 0.0
0.583272235785 0.224558779079 0.0
0.897472336926 0.101036941149 0.0
0.793882193663 0.0864551634765 0.0
0.907714918786 0.206688196154 0.0
0.201460406301 0.909219307643 0.0
0.0914541456045 0.799208379812 0.0
0.244863942422 0.55560670915 0.0
0.85672843559 0.890283345784 0.0
0.111204668929 0.144115327447 0.0
0.729871926405 0.667458564341 0.0
0.344427459357 0.274936472763 0.0

CELLS 106 424
3 25 31 37
3 25 38 31
3 24 41 51
3 26 52 35
3 24 42 52
3 35 52 50
3 26 32 36
3 26 35 32
3 24 51 39
3 27 43 33
3 28 34 44
3 27 33 64
3 28 65 34
3 17 35 16
3 20 21 36
3 24 52 40
3 28 51 41
3 10 11 37
3 7 38 6
3 30 52 42
3 14 48 33
3 23 34 47
3 12 13 43
3 5 44 4
3 15 50 48
3 22 47 49
3 22 23 47
3 15 48 14
3 27 64 42
3 28 41 65
3 24 39 42
3 33 43 62
3 34 63 44
3 1 53 8
3 1 9 53
3 27 42 39
3 5 46 44
3 12 43 45
3 24 40 41
3 25 37 54
3 29 41 40
3 10 37 59
3 7 60 38
3 20 36 57
3 17 58 35
3 25 61 38
3 32 57 36
3 32 35 58
3 28 44 46
3 27 45 43
3 15 16 50
3 22 49 21
3 31 59 37
3 31 38 60
3 30 50 52
3 29 49 47
3 30 48 50
3 13 62 43
3 4 44 63
3 14 33 62
3 23 63 34
3 21 49 36
3 16 35 50
3 5 6 46
3 12 45 11
3 3 56 18
3 3 19 56
3 28 61 51
3 28 46 61
3 25 39 51
3 11 45 37
3 6 38 46
3 26 40 52
3 26 36 55
3 25 54 39
3 37 45 54
3 26 55 40
3 7 8 60
3 10 59 9
3 27 39 54
3 2 62 13
3 0 4 63
3 29 40 55
3 2 14 62
3 0 63 23
3 20 57 19
3 17 18 58
3 36 49 55
3 27 54 45
3 38 61 46
3 29 55 49
3 8 53 60
3 9 59 53
3 29 47 65
3 30 64 48
3 29 65 41
3 30 42 64
3 25 51 61
3 34 65 47
3 33 48 64
3 31 53 59
3 31 60 53
3 19 57 56
3 18 56 58
3 32 56 57
3 32 58 56

CELL_TYPES 106
5 5 5 5 5 5 5 5 5 5 5 5 5 5 5 5 5 5 5 5 5 5 5 5 5 5 5 5 5 5 5 5 5 5 5 5 5 5 5 5 5 5 5 5 5 5 5 5 5 5 5 5 5 5 5 5 5 5 5 5 5 5 5 5 5 5 5 5 5 5 5 5 5 5 5 5 5 5 5 5 5 5 5 5 5 5 5 5 5 5 5 5 5 5 5 5 5 5 5 5 5 5 5 5 5 5 

POINT_DATA 66
