# vtk DataFile Version 1.0
2D Simulation C++
ASCII
DATASET UNSTRUCTURED_GRID
FIELD FieldData 1
NODES 1 2 int
73 120

POINTS 73 double
0.0 0.0 0.0
0.0 1.0 0.0
1.0 1.0 0.0
1.0 0.0 0.0
0.0 0.224003374577 0.0
0.0 0.448006749153 0.0
0.0 0.608711063862 0.0
0.0 0.769415378571 0.0
0.0 0.884707689285 0.0
0.115292325616 1.0 0.0
0.230584651232 1.0 0.0
0.391288936138 1.0 0.0
0.551993250847 1.0 0.0
0.775996625423 1.0 0.0
1.0 0.789787709713 0.0
1.0 0.579575359821 0.0
1.0 0.41641998291 0.0
1.0 0.253264576197 0.0
1.0 0.126632288098 0.0
0.873367726803 0.0 0.0
0.746735394001 0.0 0.0
0.583580076694 0.0 0.0
0.420424699783 0.0 0.0
0.210212349892 0.0 0.0
0.405365177778 0.594657250392 0.0
0.594839584871 0.405178651208 0.0
0.298981514973 0.302998938568 0.0
0.696981373875 0.701087259406 0.0
0.209642884711 0.79040931206 0.0
0.78916543239 0.21087434635 0.0
0.819162519372 0.436284255333 0.0
0.563768418681 0.180842397518 0.0
0.181835392949 0.571954480567 0.0
0.428078368742 0.818225435954 0.0
0.1076316855 0.892399765151 0.0
0.101223625352 0.778044736025 0.0
0.221998880185 0.898808841707 0.0
0.836130503338 0.841773024541 0.0
0.656002951333 0.869632980174 0.0
0.130425885873 0.344005410895 0.0
0.158261668506 0.163867349728 0.0
0.500054715208 0.499955179585 0.0
0.458267080698 0.362650171656 0.0
0.362312561192 0.459818725716 0.0
0.540170288257 0.637741773241 0.0
0.637329851948 0.541782288083 0.0
0.331902745386 0.132762937439 0.0
0.867222304533 0.66813608484 0.0
0.570364546019 0.282535251843 0.0
0.445725257696 0.229300330072 0.0
0.770678328856 0.554331681361 0.0
0.717470917718 0.429688719182 0.0
0.0942723880198 0.653726982795 0.0
0.104506522319 0.508606238627 0.0
0.491413707623 0.895545731302 0.0
0.346308715976 0.905761330582 0.0
0.228636260433 0.452471870935 0.0
0.283441542112 0.572999942103 0.0
0.427019898721 0.716612171515 0.0
0.547534601424 0.771443753638 0.0
0.890065397776 0.109952264282 0.0
0.899237846178 0.230401773207 0.0
0.769625451458 0.100784337563 0.0
0.906508082242 0.360345722496 0.0
0.895590322493 0.506819474076 0.0
0.493218029406 0.104402412778 0.0
0.639683769801 0.0935044763748 0.0
0.308385064839 0.691657245924 0.0
0.321955101976 0.8028544675 0.0
0.197192936203 0.678094034454 0.0
0.673349375148 0.196044471343 0.0
0.803984620302 0.326699981543 0.0
0.691564545068 0.308475566834 0.0

CELLS 120 480
3 1 34 8
3 34 35 8
3 34 28 35
3 8 35 7
3 1 9 34
3 9 36 34
3 9 10 36
3 34 36 28
3 2 37 13
3 37 38 13
3 37 27 38
3 13 38 12
3 0 4 40
3 4 39 40
3 4 5 39
3 40 39 26
3 24 41 43
3 41 42 43
3 41 25 42
3 43 42 26
3 24 44 41
3 44 45 41
3 44 27 45
3 41 45 25
3 0 40 23
3 40 46 23
3 40 26 46
3 23 46 22
3 2 14 37
3 14 47 37
3 14 15 47
3 37 47 27
3 25 48 42
3 48 49 42
3 48 31 49
3 42 49 26
3 25 45 51
3 45 50 51
3 45 27 50
3 51 50 30
3 5 6 53
3 6 52 53
3 6 7 52
3 53 52 32
3 10 11 55
3 11 54 55
3 11 12 54
3 55 54 33
3 24 43 57
3 43 56 57
3 43 26 56
3 57 56 32
3 24 58 44
3 58 59 44
3 58 33 59
3 44 59 27
3 3 60 18
3 60 61 18
3 60 29 61
3 18 61 17
3 3 19 60
3 19 62 60
3 19 20 62
3 60 62 29
3 5 53 39
3 53 56 39
3 53 32 56
3 39 56 26
3 12 38 54
3 38 59 54
3 38 27 59
3 54 59 33
3 15 16 64
3 16 63 64
3 16 17 63
3 64 63 30
3 20 21 66
3 21 65 66
3 21 22 65
3 66 65 31
3 22 46 65
3 46 49 65
3 46 26 49
3 65 49 31
3 15 64 47
3 64 50 47
3 64 30 50
3 47 50 27
3 24 67 58
3 67 68 58
3 67 28 68
3 58 68 33
3 24 57 67
3 57 69 67
3 57 32 69
3 67 69 28
3 7 35 52
3 35 69 52
3 35 28 69
3 52 69 32
3 10 55 36
3 55 68 36
3 55 33 68
3 36 68 28
3 20 66 62
3 66 70 62
3 66 31 70
3 62 70 29
3 17 61 63
3 61 71 63
3 61 29 71
3 63 71 30
3 25 72 48
3 72 70 48
3 72 29 70
3 48 70 31
3 25 51 72
3 51 71 72
3 51 30 71
3 72 71 29

CELL_TYPES 120
5 5 5 5 5 5 5 5 5 5 5 5 5 5 5 5 5 5 5 5 5 5 5 5 5 5 5 5 5 5 5 5 5 5 5 5 5 5 5 5 5 5 5 5 5 5 5 5 5 5 5 5 5 5 5 5 5 5 5 5 5 5 5 5 5 5 5 5 5 5 5 5 5 5 5 5 5 5 5 5 5 5 5 5 5 5 5 5 5 5 5 5 5 5 5 5 5 5 5 5 5 5 5 5 5 5 5 5 5 5 5 5 5 5 5 5 5 5 5 5 

POINT_DATA 73
