# vtk DataFile Version 1.0
2D Simulation C++
ASCII
DATASET UNSTRUCTURED_GRID
FIELD FieldData 1
NODES 1 2 int
73 120

POINTS 73 double
0.0 0.0 0.0
0.0 1.0 0.0
1.0 1.0 0.0
1.0 0.0 0.0
0.0 0.224003374577 0.0
0.0 0.448006749153 0.0
0.0 0.608711063862 0.0
0.0 0.769415378571 0.0
0.0 0.884707689285 0.0
0.115292325616 1.0 0.0
0.230584651232 1.0 0.0
0.391288936138 1.0 0.0
0.551993250847 1.0 0.0
0.775996625423 1.0 0.0
1.0 0.789787709713 0.0
1.0 0.579575359821 0.0
1.0 0.41641998291 0.0
1.0 0.253264576197 0.0
1.0 0.126632288098 0.0
0.873367726803 0.0 0.0
0.746735394001 0.0 0.0
0.583580076694 0.0 0.0
0.420424699783 0.0 0.0
0.210212349892 0.0 0.0
0.40482411015 0.595199665532 0.0
0.592448598411 0.407573437684 0.0
0.296717507775 0.302180738752 0.0
0.697824916916 0.703307335905 0.0
0.209454838216 0.790565279344 0.0
0.786645838645 0.213370911252 0.0
0.818217778679 0.43965300621 0.0
0.56037116073 0.181790052358 0.0
0.180633317689 0.570705301563 0.0
0.429308732792 0.81939379799 0.0
0.107529072901 0.892479966743 0.0
0.100837524832 0.777763909738 0.0
0.222247503545 0.899176569571 0.0
0.836809643115 0.84284149295 0.0
0.65694719423 0.870847996725 0.0
0.129168454737 0.343057170697 0.0
0.157169330457 0.163192454979 0.0
0.498722286186 0.501299398717 0.0
0.455483446534 0.363246002695 0.0
0.360493316299 0.459499577254 0.0
0.540514939003 0.63953448106 0.0
0.636765754487 0.544544944725 0.0
0.330237539297 0.132244528111 0.0
0.86775733298 0.669776811818 0.0
0.566822791541 0.284148011713 0.0
0.442594898211 0.229387055911 0.0
0.770618541604 0.557430271965 0.0
0.715865770903 0.433205568003 0.0
0.0936494296556 0.652993792725 0.0
0.103567071507 0.507600845216 0.0
0.492405918554 0.896450208065 0.0
0.347015675874 0.906367250377 0.0
0.226967645359 0.451189086996 0.0
0.282269021734 0.572312256578 0.0
0.427706038583 0.717759834146 0.0
0.54882144028 0.773060105295 0.0
0.888836517539 0.111170791484 0.0
0.897927605242 0.232222863637 0.0
0.767789208166 0.102080663975 0.0
0.905676786365 0.362324140394 0.0
0.895516590937 0.508770934079 0.0
0.491244392972 0.104485857779 0.0
0.637689149886 0.0943287714415 0.0
0.308139671547 0.691885310214 0.0
0.322507266081 0.803596821995 0.0
0.196428362668 0.67751151147 0.0
0.670074397958 0.19799416347 0.0
0.802019351549 0.329948341624 0.0
0.68859827806 0.311423661528 0.0

CELLS 120 480
3 1 34 8
3 34 35 8
3 34 28 35
3 8 35 7
3 1 9 34
3 9 36 34
3 9 10 36
3 34 36 28
3 2 37 13
3 37 38 13
3 37 27 38
3 13 38 12
3 0 4 40
3 4 39 40
3 4 5 39
3 40 39 26
3 24 41 43
3 41 42 43
3 41 25 42
3 43 42 26
3 24 44 41
3 44 45 41
3 44 27 45
3 41 45 25
3 0 40 23
3 40 46 23
3 40 26 46
3 23 46 22
3 2 14 37
3 14 47 37
3 14 15 47
3 37 47 27
3 25 48 42
3 48 49 42
3 48 31 49
3 42 49 26
3 25 45 51
3 45 50 51
3 45 27 50
3 51 50 30
3 5 6 53
3 6 52 53
3 6 7 52
3 53 52 32
3 10 11 55
3 11 54 55
3 11 12 54
3 55 54 33
3 24 43 57
3 43 56 57
3 43 26 56
3 57 56 32
3 24 58 44
3 58 59 44
3 58 33 59
3 44 59 27
3 3 60 18
3 60 61 18
3 60 29 61
3 18 61 17
3 3 19 60
3 19 62 60
3 19 20 62
3 60 62 29
3 5 53 39
3 53 56 39
3 53 32 56
3 39 56 26
3 12 38 54
3 38 59 54
3 38 27 59
3 54 59 33
3 15 16 64
3 16 63 64
3 16 17 63
3 64 63 30
3 20 21 66
3 21 65 66
3 21 22 65
3 66 65 31
3 22 46 65
3 46 49 65
3 46 26 49
3 65 49 31
3 15 64 47
3 64 50 47
3 64 30 50
3 47 50 27
3 24 67 58
3 67 68 58
3 67 28 68
3 58 68 33
3 24 57 67
3 57 69 67
3 57 32 69
3 67 69 28
3 7 35 52
3 35 69 52
3 35 28 69
3 52 69 32
3 10 55 36
3 55 68 36
3 55 33 68
3 36 68 28
3 20 66 62
3 66 70 62
3 66 31 70
3 62 70 29
3 17 61 63
3 61 71 63
3 61 29 71
3 63 71 30
3 25 72 48
3 72 70 48
3 72 29 70
3 48 70 31
3 25 51 72
3 51 71 72
3 51 30 71
3 72 71 29

CELL_TYPES 120
5 5 5 5 5 5 5 5 5 5 5 5 5 5 5 5 5 5 5 5 5 5 5 5 5 5 5 5 5 5 5 5 5 5 5 5 5 5 5 5 5 5 5 5 5 5 5 5 5 5 5 5 5 5 5 5 5 5 5 5 5 5 5 5 5 5 5 5 5 5 5 5 5 5 5 5 5 5 5 5 5 5 5 5 5 5 5 5 5 5 5 5 5 5 5 5 5 5 5 5 5 5 5 5 5 5 5 5 5 5 5 5 5 5 5 5 5 5 5 5 

POINT_DATA 73
