# vtk DataFile Version 1.0
2D Simulation C++
ASCII
DATASET UNSTRUCTURED_GRID
FIELD FieldData 1
NODES 1 2 int
73 120

POINTS 73 double
0.0 0.0 0.0
0.0 1.0 0.0
1.0 1.0 0.0
1.0 0.0 0.0
0.0 0.224003374577 0.0
0.0 0.448006749153 0.0
0.0 0.608711063862 0.0
0.0 0.769415378571 0.0
0.0 0.884707689285 0.0
0.115292325616 1.0 0.0
0.230584651232 1.0 0.0
0.391288936138 1.0 0.0
0.551993250847 1.0 0.0
0.775996625423 1.0 0.0
1.0 0.789787709713 0.0
1.0 0.579575359821 0.0
1.0 0.41641998291 0.0
1.0 0.253264576197 0.0
1.0 0.126632288098 0.0
0.873367726803 0.0 0.0
0.746735394001 0.0 0.0
0.583580076694 0.0 0.0
0.420424699783 0.0 0.0
0.210212349892 0.0 0.0
0.405071789838 0.594920228284 0.0
0.59725586696 0.402691650224 0.0
0.302330826535 0.305913958816 0.0
0.693963803845 0.697893055486 0.0
0.211508853597 0.788620955503 0.0
0.792761031243 0.207325163926 0.0
0.82045462705 0.430217819694 0.0
0.569858494056 0.179602815791 0.0
0.182995480429 0.575097049469 0.0
0.424918525934 0.817030899435 0.0
0.108911968634 0.891179065436 0.0
0.102908376313 0.778058826931 0.0
0.222156624611 0.897103054511 0.0
0.834243520389 0.840217520233 0.0
0.652816910001 0.867795359689 0.0
0.132526769965 0.347351410192 0.0
0.159896923459 0.165843112462 0.0
0.500450288457 0.499443766651 0.0
0.461798454173 0.363377946773 0.0
0.364146102099 0.462086223303 0.0
0.537775608849 0.635974832045 0.0
0.636465122885 0.538184790422 0.0
0.334911339552 0.134370249239 0.0
0.86558215917 0.665158200468 0.0
0.575789232218 0.281154335656 0.0
0.451134105991 0.230066765723 0.0
0.769840563255 0.548936258239 0.0
0.718878253514 0.424268086883 0.0
0.0950566840522 0.655779809628 0.0
0.10535550724 0.511772141353 0.0
0.488311120876 0.89472102258 0.0
0.344437790853 0.904869092298 0.0
0.23079518686 0.45643101817 0.0
0.284702291229 0.57496762364 0.0
0.42502810907 0.715373781735 0.0
0.543456218583 0.769561443284 0.0
0.891862103266 0.108162619464 0.0
0.901084003014 0.22732018593 0.0
0.772716166565 0.0989652931452 0.0
0.907937326719 0.356529745298 0.0
0.895753176368 0.503020807809 0.0
0.49703047549 0.104236222092 0.0
0.643505502806 0.0921119183088 0.0
0.309115151076 0.690959647644 0.0
0.321465489574 0.801126723031 0.0
0.198863816191 0.67871516708 0.0
0.678633604315 0.19349045012 0.0
0.806617806892 0.321456612785 0.0
0.695528641439 0.304580930116 0.0

CELLS 120 480
3 1 34 8
3 34 35 8
3 34 28 35
3 8 35 7
3 1 9 34
3 9 36 34
3 9 10 36
3 34 36 28
3 2 37 13
3 37 38 13
3 37 27 38
3 13 38 12
3 0 4 40
3 4 39 40
3 4 5 39
3 40 39 26
3 24 41 43
3 41 42 43
3 41 25 42
3 43 42 26
3 24 44 41
3 44 45 41
3 44 27 45
3 41 45 25
3 0 40 23
3 40 46 23
3 40 26 46
3 23 46 22
3 2 14 37
3 14 47 37
3 14 15 47
3 37 47 27
3 25 48 42
3 48 49 42
3 48 31 49
3 42 49 26
3 25 45 51
3 45 50 51
3 45 27 50
3 51 50 30
3 5 6 53
3 6 52 53
3 6 7 52
3 53 52 32
3 10 11 55
3 11 54 55
3 11 12 54
3 55 54 33
3 24 43 57
3 43 56 57
3 43 26 56
3 57 56 32
3 24 58 44
3 58 59 44
3 58 33 59
3 44 59 27
3 3 60 18
3 60 61 18
3 60 29 61
3 18 61 17
3 3 19 60
3 19 62 60
3 19 20 62
3 60 62 29
3 5 53 39
3 53 56 39
3 53 32 56
3 39 56 26
3 12 38 54
3 38 59 54
3 38 27 59
3 54 59 33
3 15 16 64
3 16 63 64
3 16 17 63
3 64 63 30
3 20 21 66
3 21 65 66
3 21 22 65
3 66 65 31
3 22 46 65
3 46 49 65
3 46 26 49
3 65 49 31
3 15 64 47
3 64 50 47
3 64 30 50
3 47 50 27
3 24 67 58
3 67 68 58
3 67 28 68
3 58 68 33
3 24 57 67
3 57 69 67
3 57 32 69
3 67 69 28
3 7 35 52
3 35 69 52
3 35 28 69
3 52 69 32
3 10 55 36
3 55 68 36
3 55 33 68
3 36 68 28
3 20 66 62
3 66 70 62
3 66 31 70
3 62 70 29
3 17 61 63
3 61 71 63
3 61 29 71
3 63 71 30
3 25 72 48
3 72 70 48
3 72 29 70
3 48 70 31
3 25 51 72
3 51 71 72
3 51 30 71
3 72 71 29

CELL_TYPES 120
5 5 5 5 5 5 5 5 5 5 5 5 5 5 5 5 5 5 5 5 5 5 5 5 5 5 5 5 5 5 5 5 5 5 5 5 5 5 5 5 5 5 5 5 5 5 5 5 5 5 5 5 5 5 5 5 5 5 5 5 5 5 5 5 5 5 5 5 5 5 5 5 5 5 5 5 5 5 5 5 5 5 5 5 5 5 5 5 5 5 5 5 5 5 5 5 5 5 5 5 5 5 5 5 5 5 5 5 5 5 5 5 5 5 5 5 5 5 5 5 

POINT_DATA 73
