# vtk DataFile Version 1.0
2D Simulation C++
ASCII
DATASET UNSTRUCTURED_GRID
FIELD FieldData 1
NODES 1 2 int
66 106

POINTS 66 double
0.0 0.0 0.0
0.0 1.0 0.0
1.0 1.0 0.0
1.0 0.0 0.0
0.0 0.224003374577 0.0
0.0 0.448006749153 0.0
0.0 0.608711063862 0.0
0.0 0.769415378571 0.0
0.0 0.884707689285 0.0
0.115292325616 1.0 0.0
0.230584651232 1.0 0.0
0.391288936138 1.0 0.0
0.551993250847 1.0 0.0
0.775996625423 1.0 0.0
1.0 0.789787709713 0.0
1.0 0.579575359821 0.0
1.0 0.41641998291 0.0
1.0 0.253264576197 0.0
1.0 0.126632288098 0.0
0.873367726803 0.0 0.0
0.746735394001 0.0 0.0
0.583580076694 0.0 0.0
0.420424699783 0.0 0.0
0.210212349892 0.0 0.0
0.529729671503 0.487131846257 0.0
0.315979190445 0.687406812039 0.0
0.697572284857 0.28234849952 0.0
0.608024451328 0.742440600182 0.0
0.262959892977 0.396091246377 0.0
0.461906668839 0.248077849811 0.0
0.757831119736 0.56448896941 0.0
0.202288337844 0.798990928004 0.0
0.798996765316 0.194379226134 0.0
0.793574029507 0.772951529169 0.0
0.231512652771 0.208432409406 0.0
0.850748148259 0.333265050733 0.0
0.670320614668 0.128730371609 0.0
0.330552797506 0.860937391052 0.0
0.140532437454 0.670818671752 0.0
0.481882270669 0.632675838473 0.0
0.566519469296 0.349195611584 0.0
0.421608592171 0.384289075082 0.0
0.629177027575 0.587849941673 0.0
0.678784133016 0.881704484461 0.0
0.120505356982 0.322526800805 0.0
0.502250329643 0.874652935737 0.0
0.127282036141 0.499275103319 0.0
0.356918237161 0.134373493085 0.0
0.866782087385 0.650152267828 0.0
0.511251114148 0.119966930221 0.0
0.863344374291 0.49382744192 0.0
0.374680642489 0.525516751422 0.0
0.699632784363 0.440000251481 0.0
0.100987916107 0.899411057719 0.0
0.446455960395 0.760044016252 0.0
0.582637884663 0.225147090386 0.0
0.897403913303 0.101065632086 0.0
0.793776099369 0.0865149690167 0.0
0.907571696272 0.206743670275 0.0
0.200904560716 0.909669164224 0.0
0.0909301726165 0.799738354451 0.0
0.243568687117 0.556818818505 0.0
0.856452299327 0.890251109198 0.0
0.111062404921 0.144357214941 0.0
0.728658248893 0.667698727806 0.0
0.343533733156 0.27597846459 0.0

CELLS 106 424
3 25 31 37
3 25 38 31
3 24 41 51
3 26 52 35
3 24 42 52
3 35 52 50
3 26 32 36
3 26 35 32
3 24 51 39
3 27 43 33
3 28 34 44
3 27 33 64
3 28 65 34
3 17 35 16
3 20 21 36
3 24 52 40
3 28 51 41
3 10 11 37
3 7 38 6
3 30 52 42
3 14 48 33
3 23 34 47
3 12 13 43
3 5 44 4
3 15 50 48
3 22 47 49
3 22 23 47
3 15 48 14
3 27 64 42
3 28 41 65
3 24 39 42
3 33 43 62
3 34 63 44
3 1 53 8
3 1 9 53
3 27 42 39
3 5 46 44
3 12 43 45
3 24 40 41
3 25 37 54
3 29 41 40
3 10 37 59
3 7 60 38
3 20 36 57
3 17 58 35
3 25 61 38
3 32 57 36
3 32 35 58
3 28 44 46
3 27 45 43
3 15 16 50
3 22 49 21
3 31 59 37
3 31 38 60
3 30 50 52
3 29 49 47
3 30 48 50
3 13 62 43
3 4 44 63
3 14 33 62
3 23 63 34
3 21 49 36
3 16 35 50
3 5 6 46
3 12 45 11
3 3 56 18
3 3 19 56
3 28 61 51
3 28 46 61
3 25 39 51
3 11 45 37
3 6 38 46
3 26 40 52
3 26 36 55
3 25 54 39
3 37 45 54
3 26 55 40
3 7 8 60
3 10 59 9
3 27 39 54
3 2 62 13
3 0 4 63
3 29 40 55
3 2 14 62
3 0 63 23
3 20 57 19
3 17 18 58
3 36 49 55
3 27 54 45
3 38 61 46
3 29 55 49
3 8 53 60
3 9 59 53
3 29 47 65
3 30 64 48
3 29 65 41
3 30 42 64
3 25 51 61
3 34 65 47
3 33 48 64
3 31 53 59
3 31 60 53
3 19 57 56
3 18 56 58
3 32 56 57
3 32 58 56

CELL_TYPES 106
5 5 5 5 5 5 5 5 5 5 5 5 5 5 5 5 5 5 5 5 5 5 5 5 5 5 5 5 5 5 5 5 5 5 5 5 5 5 5 5 5 5 5 5 5 5 5 5 5 5 5 5 5 5 5 5 5 5 5 5 5 5 5 5 5 5 5 5 5 5 5 5 5 5 5 5 5 5 5 5 5 5 5 5 5 5 5 5 5 5 5 5 5 5 5 5 5 5 5 5 5 5 5 5 5 5 

POINT_DATA 66
