# vtk DataFile Version 1.0
2D Simulation C++
ASCII
DATASET UNSTRUCTURED_GRID
FIELD FieldData 1
NODES 1 2 int
66 106

POINTS 66 double
0.0 0.0 0.0
0.0 1.0 0.0
1.0 1.0 0.0
1.0 0.0 0.0
0.0 0.224003374577 0.0
0.0 0.448006749153 0.0
0.0 0.608711063862 0.0
0.0 0.769415378571 0.0
0.0 0.884707689285 0.0
0.115292325616 1.0 0.0
0.230584651232 1.0 0.0
0.391288936138 1.0 0.0
0.551993250847 1.0 0.0
0.775996625423 1.0 0.0
1.0 0.789787709713 0.0
1.0 0.579575359821 0.0
1.0 0.41641998291 0.0
1.0 0.253264576197 0.0
1.0 0.126632288098 0.0
0.873367726803 0.0 0.0
0.746735394001 0.0 0.0
0.583580076694 0.0 0.0
0.420424699783 0.0 0.0
0.210212349892 0.0 0.0
0.527661281198 0.488399316957 0.0
0.313897383735 0.689114292427 0.0
0.696931926821 0.282669860393 0.0
0.6062043615 0.742906530437 0.0
0.261562914391 0.397809759659 0.0
0.461009032523 0.249298629611 0.0
0.756275568518 0.564575570124 0.0
0.200883552685 0.800287458226 0.0
0.798863519246 0.194370972517 0.0
0.792543775536 0.772888835891 0.0
0.230943892418 0.20944141334 0.0
0.850290586168 0.333305385398 0.0
0.67016180901 0.128919082719 0.0
0.329313085542 0.861838074037 0.0
0.13934503591 0.672049632501 0.0
0.479486022678 0.634021346641 0.0
0.565226287661 0.350202492439 0.0
0.419965412149 0.386001342417 0.0
0.627053505079 0.588399578818 0.0
0.677995600478 0.881743410629 0.0
0.119983864883 0.32333244859 0.0
0.501145602922 0.875063548131 0.0
0.126383892803 0.500411858144 0.0
0.356499038141 0.135208516126 0.0
0.865863380062 0.65007421177 0.0
0.510958486731 0.120524603039 0.0
0.862578124965 0.493809944119 0.0
0.372463436204 0.527444482308 0.0
0.698253003018 0.440395462118 0.0
0.100339758447 0.900053218884 0.0
0.444443405937 0.761155481193 0.0
0.582048569961 0.225831973494 0.0
0.897430912363 0.10100962427 0.0
0.793782709146 0.0864945675543 0.0
0.907505250726 0.206699439971 0.0
0.200081307537 0.910366869831 0.0
0.0901526140683 0.800583702754 0.0
0.241745155228 0.558706987154 0.0
0.856039539287 0.890139925429 0.0
0.110923705592 0.144761860902 0.0
0.726954943203 0.667779322698 0.0
0.342477790721 0.277531310017 0.0

CELLS 106 424
3 25 31 37
3 25 38 31
3 24 41 51
3 26 52 35
3 24 42 52
3 35 52 50
3 26 32 36
3 26 35 32
3 24 51 39
3 27 43 33
3 28 34 44
3 27 33 64
3 28 65 34
3 17 35 16
3 20 21 36
3 24 52 40
3 28 51 41
3 10 11 37
3 7 38 6
3 30 52 42
3 14 48 33
3 23 34 47
3 12 13 43
3 5 44 4
3 15 50 48
3 22 47 49
3 22 23 47
3 15 48 14
3 27 64 42
3 28 41 65
3 24 39 42
3 33 43 62
3 34 63 44
3 1 53 8
3 1 9 53
3 27 42 39
3 5 46 44
3 12 43 45
3 24 40 41
3 25 37 54
3 29 41 40
3 10 37 59
3 7 60 38
3 20 36 57
3 17 58 35
3 25 61 38
3 32 57 36
3 32 35 58
3 28 44 46
3 27 45 43
3 15 16 50
3 22 49 21
3 31 59 37
3 31 38 60
3 30 50 52
3 29 49 47
3 30 48 50
3 13 62 43
3 4 44 63
3 14 33 62
3 23 63 34
3 21 49 36
3 16 35 50
3 5 6 46
3 12 45 11
3 3 56 18
3 3 19 56
3 28 61 51
3 28 46 61
3 25 39 51
3 11 45 37
3 6 38 46
3 26 40 52
3 26 36 55
3 25 54 39
3 37 45 54
3 26 55 40
3 7 8 60
3 10 59 9
3 27 39 54
3 2 62 13
3 0 4 63
3 29 40 55
3 2 14 62
3 0 63 23
3 20 57 19
3 17 18 58
3 36 49 55
3 27 54 45
3 38 61 46
3 29 55 49
3 8 53 60
3 9 59 53
3 29 47 65
3 30 64 48
3 29 65 41
3 30 42 64
3 25 51 61
3 34 65 47
3 33 48 64
3 31 53 59
3 31 60 53
3 19 57 56
3 18 56 58
3 32 56 57
3 32 58 56

CELL_TYPES 106
5 5 5 5 5 5 5 5 5 5 5 5 5 5 5 5 5 5 5 5 5 5 5 5 5 5 5 5 5 5 5 5 5 5 5 5 5 5 5 5 5 5 5 5 5 5 5 5 5 5 5 5 5 5 5 5 5 5 5 5 5 5 5 5 5 5 5 5 5 5 5 5 5 5 5 5 5 5 5 5 5 5 5 5 5 5 5 5 5 5 5 5 5 5 5 5 5 5 5 5 5 5 5 5 5 5 

POINT_DATA 66
