# vtk DataFile Version 1.0
2D Simulation C++
ASCII
DATASET UNSTRUCTURED_GRID
FIELD FieldData 1
NODES 1 2 int
73 120

POINTS 73 double
0.0 0.0 0.0
0.0 1.0 0.0
1.0 1.0 0.0
1.0 0.0 0.0
0.0 0.224003374577 0.0
0.0 0.448006749153 0.0
0.0 0.608711063862 0.0
0.0 0.769415378571 0.0
0.0 0.884707689285 0.0
0.115292325616 1.0 0.0
0.230584651232 1.0 0.0
0.391288936138 1.0 0.0
0.551993250847 1.0 0.0
0.775996625423 1.0 0.0
1.0 0.789787709713 0.0
1.0 0.579575359821 0.0
1.0 0.41641998291 0.0
1.0 0.253264576197 0.0
1.0 0.126632288098 0.0
0.873367726803 0.0 0.0
0.746735394001 0.0 0.0
0.583580076694 0.0 0.0
0.420424699783 0.0 0.0
0.210212349892 0.0 0.0
0.405367755097 0.594654427634 0.0
0.594872273257 0.405145643261 0.0
0.299017968884 0.303021568398 0.0
0.696958130998 0.701051799943 0.0
0.209649890489 0.790402932544 0.0
0.789206037832 0.21083418299 0.0
0.819174821489 0.436225499638 0.0
0.563827556102 0.180830179541 0.0
0.181852980664 0.571981957362 0.0
0.428051274057 0.81820826718 0.0
0.107636514882 0.892395454576 0.0
0.101233090605 0.778048728006 0.0
0.22199575221 0.8987995839 0.0
0.836114592188 0.841755063019 0.0
0.655980420996 0.869613809299 0.0
0.130446185976 0.34402821348 0.0
0.158280190467 0.163883315712 0.0
0.500068011492 0.499941346329 0.0
0.458309083814 0.362649651142 0.0
0.362337367097 0.459833750349 0.0
0.540154493403 0.637717454624 0.0
0.637329493531 0.54174047509 0.0
0.331931837029 0.132776260049 0.0
0.867208638219 0.668107445983 0.0
0.570421944462 0.282514926725 0.0
0.445778547588 0.229305344539 0.0
0.770672709851 0.554278876937 0.0
0.717491096914 0.429631601524 0.0
0.09428244983 0.653742756828 0.0
0.104520343653 0.508629512994 0.0
0.491390826555 0.895532620206 0.0
0.346293668515 0.90575130303 0.0
0.228660988622 0.452503014312 0.0
0.28345791998 0.573017354541 0.0
0.427002395558 0.716596113189 0.0
0.547503302268 0.77142028765 0.0
0.890085576792 0.109932248313 0.0
0.899258668289 0.230370594604 0.0
0.769656834482 0.100763828904 0.0
0.906521023386 0.360310482023 0.0
0.895589252212 0.506784523517 0.0
0.493253310655 0.104403335913 0.0
0.639719208433 0.0934917891449 0.0
0.308388595252 0.691653901774 0.0
0.321945110046 0.80284069798 0.0
0.197206818378 0.678104720201 0.0
0.67340432587 0.196015191629 0.0
0.804014342502 0.32664543556 0.0
0.691610188825 0.308430260788 0.0

CELLS 120 480
3 1 34 8
3 34 35 8
3 34 28 35
3 8 35 7
3 1 9 34
3 9 36 34
3 9 10 36
3 34 36 28
3 2 37 13
3 37 38 13
3 37 27 38
3 13 38 12
3 0 4 40
3 4 39 40
3 4 5 39
3 40 39 26
3 24 41 43
3 41 42 43
3 41 25 42
3 43 42 26
3 24 44 41
3 44 45 41
3 44 27 45
3 41 45 25
3 0 40 23
3 40 46 23
3 40 26 46
3 23 46 22
3 2 14 37
3 14 47 37
3 14 15 47
3 37 47 27
3 25 48 42
3 48 49 42
3 48 31 49
3 42 49 26
3 25 45 51
3 45 50 51
3 45 27 50
3 51 50 30
3 5 6 53
3 6 52 53
3 6 7 52
3 53 52 32
3 10 11 55
3 11 54 55
3 11 12 54
3 55 54 33
3 24 43 57
3 43 56 57
3 43 26 56
3 57 56 32
3 24 58 44
3 58 59 44
3 58 33 59
3 44 59 27
3 3 60 18
3 60 61 18
3 60 29 61
3 18 61 17
3 3 19 60
3 19 62 60
3 19 20 62
3 60 62 29
3 5 53 39
3 53 56 39
3 53 32 56
3 39 56 26
3 12 38 54
3 38 59 54
3 38 27 59
3 54 59 33
3 15 16 64
3 16 63 64
3 16 17 63
3 64 63 30
3 20 21 66
3 21 65 66
3 21 22 65
3 66 65 31
3 22 46 65
3 46 49 65
3 46 26 49
3 65 49 31
3 15 64 47
3 64 50 47
3 64 30 50
3 47 50 27
3 24 67 58
3 67 68 58
3 67 28 68
3 58 68 33
3 24 57 67
3 57 69 67
3 57 32 69
3 67 69 28
3 7 35 52
3 35 69 52
3 35 28 69
3 52 69 32
3 10 55 36
3 55 68 36
3 55 33 68
3 36 68 28
3 20 66 62
3 66 70 62
3 66 31 70
3 62 70 29
3 17 61 63
3 61 71 63
3 61 29 71
3 63 71 30
3 25 72 48
3 72 70 48
3 72 29 70
3 48 70 31
3 25 51 72
3 51 71 72
3 51 30 71
3 72 71 29

CELL_TYPES 120
5 5 5 5 5 5 5 5 5 5 5 5 5 5 5 5 5 5 5 5 5 5 5 5 5 5 5 5 5 5 5 5 5 5 5 5 5 5 5 5 5 5 5 5 5 5 5 5 5 5 5 5 5 5 5 5 5 5 5 5 5 5 5 5 5 5 5 5 5 5 5 5 5 5 5 5 5 5 5 5 5 5 5 5 5 5 5 5 5 5 5 5 5 5 5 5 5 5 5 5 5 5 5 5 5 5 5 5 5 5 5 5 5 5 5 5 5 5 5 5 

POINT_DATA 73
