# vtk DataFile Version 1.0
2D Simulation C++
ASCII
DATASET UNSTRUCTURED_GRID
FIELD FieldData 1
NODES 1 2 int
66 106

POINTS 66 double
0.0 0.0 0.0
0.0 1.0 0.0
1.0 1.0 0.0
1.0 0.0 0.0
0.0 0.224003374577 0.0
0.0 0.448006749153 0.0
0.0 0.608711063862 0.0
0.0 0.769415378571 0.0
0.0 0.884707689285 0.0
0.115292325616 1.0 0.0
0.230584651232 1.0 0.0
0.391288936138 1.0 0.0
0.551993250847 1.0 0.0
0.775996625423 1.0 0.0
1.0 0.789787709713 0.0
1.0 0.579575359821 0.0
1.0 0.41641998291 0.0
1.0 0.253264576197 0.0
1.0 0.126632288098 0.0
0.873367726803 0.0 0.0
0.746735394001 0.0 0.0
0.583580076694 0.0 0.0
0.420424699783 0.0 0.0
0.210212349892 0.0 0.0
0.508500301324 0.495946678439 0.0
0.291363779296 0.709101371196 0.0
0.701707652478 0.279241083732 0.0
0.586952284373 0.741860091442 0.0
0.252169425691 0.423661681125 0.0
0.462198755227 0.257262727207 0.0
0.747440931111 0.555520884384 0.0
0.186587042546 0.814621223033 0.0
0.807378331456 0.18775589423 0.0
0.781901243246 0.768593782306 0.0
0.231096115016 0.222420710661 0.0
0.852787485039 0.32469151217 0.0
0.677932175963 0.128544960297 0.0
0.315813488041 0.870032654732 0.0
0.127977003587 0.690764929275 0.0
0.45272795481 0.642700849086 0.0
0.560171076084 0.353232439207 0.0
0.406476171038 0.399085794123 0.0
0.610589764535 0.589731677824 0.0
0.671305187344 0.878758548363 0.0
0.120557486963 0.334483825009 0.0
0.489256915605 0.875642989009 0.0
0.121983496752 0.520574662706 0.0
0.360118399993 0.143571441495 0.0
0.858275275941 0.642291085833 0.0
0.516832586443 0.125231434318 0.0
0.859967845649 0.483645048283 0.0
0.347845587915 0.550180169474 0.0
0.690820234198 0.434777068725 0.0
0.0948078513104 0.905593462058 0.0
0.422738465639 0.767976288172 0.0
0.588286137787 0.229561498106 0.0
0.902143803052 0.0971232339457 0.0
0.800198432688 0.0834081743807 0.0
0.912450214075 0.200224486257 0.0
0.191359402322 0.916942476381 0.0
0.0826794389447 0.810943112973 0.0
0.224421187624 0.590851524925 0.0
0.856779299297 0.886410623859 0.0
0.113704903921 0.14514138545 0.0
0.713470349896 0.662110781557 0.0
0.339601323913 0.293038717226 0.0

CELLS 106 424
3 25 31 37
3 25 38 31
3 24 41 51
3 26 52 35
3 24 42 52
3 35 52 50
3 26 32 36
3 26 35 32
3 24 51 39
3 27 43 33
3 28 34 44
3 27 33 64
3 28 65 34
3 17 35 16
3 20 21 36
3 24 52 40
3 28 51 41
3 10 11 37
3 7 38 6
3 30 52 42
3 14 48 33
3 23 34 47
3 12 13 43
3 5 44 4
3 15 50 48
3 22 47 49
3 22 23 47
3 15 48 14
3 27 64 42
3 28 41 65
3 24 39 42
3 33 43 62
3 34 63 44
3 1 53 8
3 1 9 53
3 27 42 39
3 5 46 44
3 12 43 45
3 24 40 41
3 25 37 54
3 29 41 40
3 10 37 59
3 7 60 38
3 20 36 57
3 17 58 35
3 25 61 38
3 32 57 36
3 32 35 58
3 28 44 46
3 27 45 43
3 15 16 50
3 22 49 21
3 31 59 37
3 31 38 60
3 30 50 52
3 29 49 47
3 30 48 50
3 13 62 43
3 4 44 63
3 14 33 62
3 23 63 34
3 21 49 36
3 16 35 50
3 5 6 46
3 12 45 11
3 3 56 18
3 3 19 56
3 28 61 51
3 28 46 61
3 25 39 51
3 11 45 37
3 6 38 46
3 26 40 52
3 26 36 55
3 25 54 39
3 37 45 54
3 26 55 40
3 7 8 60
3 10 59 9
3 27 39 54
3 2 62 13
3 0 4 63
3 29 40 55
3 2 14 62
3 0 63 23
3 20 57 19
3 17 18 58
3 36 49 55
3 27 54 45
3 38 61 46
3 29 55 49
3 8 53 60
3 9 59 53
3 29 47 65
3 30 64 48
3 29 65 41
3 30 42 64
3 25 51 61
3 34 65 47
3 33 48 64
3 31 53 59
3 31 60 53
3 19 57 56
3 18 56 58
3 32 56 57
3 32 58 56

CELL_TYPES 106
5 5 5 5 5 5 5 5 5 5 5 5 5 5 5 5 5 5 5 5 5 5 5 5 5 5 5 5 5 5 5 5 5 5 5 5 5 5 5 5 5 5 5 5 5 5 5 5 5 5 5 5 5 5 5 5 5 5 5 5 5 5 5 5 5 5 5 5 5 5 5 5 5 5 5 5 5 5 5 5 5 5 5 5 5 5 5 5 5 5 5 5 5 5 5 5 5 5 5 5 5 5 5 5 5 5 

POINT_DATA 66
