# vtk DataFile Version 1.0
2D Simulation C++
ASCII
DATASET UNSTRUCTURED_GRID
FIELD FieldData 1
NODES 1 2 int
73 120

POINTS 73 double
0.0 0.0 0.0
0.0 1.0 0.0
1.0 1.0 0.0
1.0 0.0 0.0
0.0 0.224003374577 0.0
0.0 0.448006749153 0.0
0.0 0.608711063862 0.0
0.0 0.769415378571 0.0
0.0 0.884707689285 0.0
0.115292325616 1.0 0.0
0.230584651232 1.0 0.0
0.391288936138 1.0 0.0
0.551993250847 1.0 0.0
0.775996625423 1.0 0.0
1.0 0.789787709713 0.0
1.0 0.579575359821 0.0
1.0 0.41641998291 0.0
1.0 0.253264576197 0.0
1.0 0.126632288098 0.0
0.873367726803 0.0 0.0
0.746735394001 0.0 0.0
0.583580076694 0.0 0.0
0.420424699783 0.0 0.0
0.210212349892 0.0 0.0
0.405076077648 0.594916006985 0.0
0.597245869724 0.402702209073 0.0
0.302313619064 0.305895070631 0.0
0.693983596467 0.697909086444 0.0
0.211490502488 0.7886388171 0.0
0.792743413475 0.207342549134 0.0
0.820445842692 0.430253355988 0.0
0.569822841937 0.179611016478 0.0
0.182992756502 0.575078133982 0.0
0.424938174901 0.817034411516 0.0
0.10889966039 0.8911911044 0.0
0.102893904515 0.778061278062 0.0
0.222152647489 0.897117929957 0.0
0.834254350144 0.840223832128 0.0
0.652841345233 0.867806752825 0.0
0.132512538448 0.347324638729 0.0
0.159890055977 0.165831080696 0.0
0.500452242029 0.499442837466 0.0
0.461781928374 0.363370641182 0.0
0.364138627677 0.462070210491 0.0
0.53779256162 0.635981854815 0.0
0.636473482284 0.538202533602 0.0
0.334893287559 0.134359820298 0.0
0.865592736339 0.665176241732 0.0
0.575759277221 0.281159075745 0.0
0.451102359587 0.230062076011 0.0
0.769845688346 0.548968248966 0.0
0.718872964583 0.424298087117 0.0
0.0950541796393 0.655764290171 0.0
0.105354980515 0.511749523709 0.0
0.488333385321 0.894722203762 0.0
0.344451187159 0.904873116487 0.0
0.23078320646 0.456405355319 0.0
0.284697201373 0.574956044427 0.0
0.425039846954 0.715378797312 0.0
0.543483878758 0.769570496326 0.0
0.89185330945 0.10817143759 0.0
0.901074854822 0.227337504206 0.0
0.77269885696 0.0989743800615 0.0
0.907927882998 0.356553672523 0.0
0.895749060323 0.503044370019 0.0
0.497006957658 0.104240288693 0.0
0.64348160304 0.0921211773199 0.0
0.309108657121 0.690965730232 0.0
0.321464676437 0.801138415178 0.0
0.198852862124 0.678714686524 0.0
0.678604795708 0.193503396105 0.0
0.806604263568 0.321485143287 0.0
0.695508869626 0.304599977139 0.0

CELLS 120 480
3 1 34 8
3 34 35 8
3 34 28 35
3 8 35 7
3 1 9 34
3 9 36 34
3 9 10 36
3 34 36 28
3 2 37 13
3 37 38 13
3 37 27 38
3 13 38 12
3 0 4 40
3 4 39 40
3 4 5 39
3 40 39 26
3 24 41 43
3 41 42 43
3 41 25 42
3 43 42 26
3 24 44 41
3 44 45 41
3 44 27 45
3 41 45 25
3 0 40 23
3 40 46 23
3 40 26 46
3 23 46 22
3 2 14 37
3 14 47 37
3 14 15 47
3 37 47 27
3 25 48 42
3 48 49 42
3 48 31 49
3 42 49 26
3 25 45 51
3 45 50 51
3 45 27 50
3 51 50 30
3 5 6 53
3 6 52 53
3 6 7 52
3 53 52 32
3 10 11 55
3 11 54 55
3 11 12 54
3 55 54 33
3 24 43 57
3 43 56 57
3 43 26 56
3 57 56 32
3 24 58 44
3 58 59 44
3 58 33 59
3 44 59 27
3 3 60 18
3 60 61 18
3 60 29 61
3 18 61 17
3 3 19 60
3 19 62 60
3 19 20 62
3 60 62 29
3 5 53 39
3 53 56 39
3 53 32 56
3 39 56 26
3 12 38 54
3 38 59 54
3 38 27 59
3 54 59 33
3 15 16 64
3 16 63 64
3 16 17 63
3 64 63 30
3 20 21 66
3 21 65 66
3 21 22 65
3 66 65 31
3 22 46 65
3 46 49 65
3 46 26 49
3 65 49 31
3 15 64 47
3 64 50 47
3 64 30 50
3 47 50 27
3 24 67 58
3 67 68 58
3 67 28 68
3 58 68 33
3 24 57 67
3 57 69 67
3 57 32 69
3 67 69 28
3 7 35 52
3 35 69 52
3 35 28 69
3 52 69 32
3 10 55 36
3 55 68 36
3 55 33 68
3 36 68 28
3 20 66 62
3 66 70 62
3 66 31 70
3 62 70 29
3 17 61 63
3 61 71 63
3 61 29 71
3 63 71 30
3 25 72 48
3 72 70 48
3 72 29 70
3 48 70 31
3 25 51 72
3 51 71 72
3 51 30 71
3 72 71 29

CELL_TYPES 120
5 5 5 5 5 5 5 5 5 5 5 5 5 5 5 5 5 5 5 5 5 5 5 5 5 5 5 5 5 5 5 5 5 5 5 5 5 5 5 5 5 5 5 5 5 5 5 5 5 5 5 5 5 5 5 5 5 5 5 5 5 5 5 5 5 5 5 5 5 5 5 5 5 5 5 5 5 5 5 5 5 5 5 5 5 5 5 5 5 5 5 5 5 5 5 5 5 5 5 5 5 5 5 5 5 5 5 5 5 5 5 5 5 5 5 5 5 5 5 5 

POINT_DATA 73
