# vtk DataFile Version 1.0
2D Simulation C++
ASCII
DATASET UNSTRUCTURED_GRID
FIELD FieldData 1
NODES 1 2 int
66 106

POINTS 66 double
0.0 0.0 0.0
0.0 1.0 0.0
1.0 1.0 0.0
1.0 0.0 0.0
0.0 0.224003374577 0.0
0.0 0.448006749153 0.0
0.0 0.608711063862 0.0
0.0 0.769415378571 0.0
0.0 0.884707689285 0.0
0.115292325616 1.0 0.0
0.230584651232 1.0 0.0
0.391288936138 1.0 0.0
0.551993250847 1.0 0.0
0.775996625423 1.0 0.0
1.0 0.789787709713 0.0
1.0 0.579575359821 0.0
1.0 0.41641998291 0.0
1.0 0.253264576197 0.0
1.0 0.126632288098 0.0
0.873367726803 0.0 0.0
0.746735394001 0.0 0.0
0.583580076694 0.0 0.0
0.420424699783 0.0 0.0
0.210212349892 0.0 0.0
0.528016216186 0.48818665454 0.0
0.314266976992 0.688806230578 0.0
0.697022214289 0.282630553712 0.0
0.606526208327 0.742837757453 0.0
0.261799998316 0.397496009206 0.0
0.461146064664 0.249087407102 0.0
0.75654235527 0.564581947558 0.0
0.201134707388 0.800050525924 0.0
0.798867920076 0.194386829862 0.0
0.79272578848 0.772912153755 0.0
0.231033223103 0.209256484876 0.0
0.850358515032 0.333312191881 0.0
0.670172600284 0.128895522798 0.0
0.329534303195 0.861676755233 0.0
0.139556185855 0.67182245442 0.0
0.479908148004 0.633790782721 0.0
0.565433856909 0.350038062586 0.0
0.420240268166 0.385699779431 0.0
0.627422744307 0.588321560031 0.0
0.678135999028 0.88174438839 0.0
0.120069052816 0.323182653838 0.0
0.501342284508 0.874996312012 0.0
0.126538888199 0.500201107626 0.0
0.356560472347 0.135059809882 0.0
0.866022393271 0.65010105362 0.0
0.510994543924 0.120430430089 0.0
0.862705637859 0.493827544667 0.0
0.372849895395 0.527099798995 0.0
0.698482685601 0.440345480018 0.0
0.100456103354 0.899935463297 0.0
0.444801307129 0.760963074997 0.0
0.582128026161 0.22572275938 0.0
0.897416266437 0.101027046036 0.0
0.793768998296 0.086506198594 0.0
0.907506043375 0.206716917889 0.0
0.200228690832 0.910239805902 0.0
0.0902919977001 0.800427649501 0.0
0.242065323831 0.558360770539 0.0
0.856113518055 0.890164360773 0.0
0.110942910918 0.144685764969 0.0
0.72725278062 0.667784918829 0.0
0.342647388145 0.277252334062 0.0

CELLS 106 424
3 25 31 37
3 25 38 31
3 24 41 51
3 26 52 35
3 24 42 52
3 35 52 50
3 26 32 36
3 26 35 32
3 24 51 39
3 27 43 33
3 28 34 44
3 27 33 64
3 28 65 34
3 17 35 16
3 20 21 36
3 24 52 40
3 28 51 41
3 10 11 37
3 7 38 6
3 30 52 42
3 14 48 33
3 23 34 47
3 12 13 43
3 5 44 4
3 15 50 48
3 22 47 49
3 22 23 47
3 15 48 14
3 27 64 42
3 28 41 65
3 24 39 42
3 33 43 62
3 34 63 44
3 1 53 8
3 1 9 53
3 27 42 39
3 5 46 44
3 12 43 45
3 24 40 41
3 25 37 54
3 29 41 40
3 10 37 59
3 7 60 38
3 20 36 57
3 17 58 35
3 25 61 38
3 32 57 36
3 32 35 58
3 28 44 46
3 27 45 43
3 15 16 50
3 22 49 21
3 31 59 37
3 31 38 60
3 30 50 52
3 29 49 47
3 30 48 50
3 13 62 43
3 4 44 63
3 14 33 62
3 23 63 34
3 21 49 36
3 16 35 50
3 5 6 46
3 12 45 11
3 3 56 18
3 3 19 56
3 28 61 51
3 28 46 61
3 25 39 51
3 11 45 37
3 6 38 46
3 26 40 52
3 26 36 55
3 25 54 39
3 37 45 54
3 26 55 40
3 7 8 60
3 10 59 9
3 27 39 54
3 2 62 13
3 0 4 63
3 29 40 55
3 2 14 62
3 0 63 23
3 20 57 19
3 17 18 58
3 36 49 55
3 27 54 45
3 38 61 46
3 29 55 49
3 8 53 60
3 9 59 53
3 29 47 65
3 30 64 48
3 29 65 41
3 30 42 64
3 25 51 61
3 34 65 47
3 33 48 64
3 31 53 59
3 31 60 53
3 19 57 56
3 18 56 58
3 32 56 57
3 32 58 56

CELL_TYPES 106
5 5 5 5 5 5 5 5 5 5 5 5 5 5 5 5 5 5 5 5 5 5 5 5 5 5 5 5 5 5 5 5 5 5 5 5 5 5 5 5 5 5 5 5 5 5 5 5 5 5 5 5 5 5 5 5 5 5 5 5 5 5 5 5 5 5 5 5 5 5 5 5 5 5 5 5 5 5 5 5 5 5 5 5 5 5 5 5 5 5 5 5 5 5 5 5 5 5 5 5 5 5 5 5 5 5 

POINT_DATA 66
