# vtk DataFile Version 1.0
2D Simulation C++
ASCII
DATASET UNSTRUCTURED_GRID
FIELD FieldData 1
NODES 1 2 int
73 120

POINTS 73 double
0.0 0.0 0.0
0.0 1.0 0.0
1.0 1.0 0.0
1.0 0.0 0.0
0.0 0.224003374577 0.0
0.0 0.448006749153 0.0
0.0 0.608711063862 0.0
0.0 0.769415378571 0.0
0.0 0.884707689285 0.0
0.115292325616 1.0 0.0
0.230584651232 1.0 0.0
0.391288936138 1.0 0.0
0.551993250847 1.0 0.0
0.775996625423 1.0 0.0
1.0 0.789787709713 0.0
1.0 0.579575359821 0.0
1.0 0.41641998291 0.0
1.0 0.253264576197 0.0
1.0 0.126632288098 0.0
0.873367726803 0.0 0.0
0.746735394001 0.0 0.0
0.583580076694 0.0 0.0
0.420424699783 0.0 0.0
0.210212349892 0.0 0.0
0.405159965728 0.594866754561 0.0
0.593546823276 0.406477216189 0.0
0.297668763157 0.302365998764 0.0
0.697632071112 0.702371028287 0.0
0.20949898047 0.790533148211 0.0
0.787699519993 0.212325895692 0.0
0.818678508597 0.438305755465 0.0
0.561731183389 0.181327028457 0.0
0.181162622387 0.571103251961 0.0
0.428917098607 0.818879482604 0.0
0.107538659321 0.892477615072 0.0
0.100963701643 0.777876616519 0.0
0.222144149441 0.899058771441 0.0
0.83660527987 0.842407079623 0.0
0.656664217281 0.870332969074 0.0
0.129696090871 0.343339968099 0.0
0.157611435916 0.1633942956 0.0
0.499416250015 0.500605277302 0.0
0.456697911191 0.362841446563 0.0
0.36133125841 0.459465904835 0.0
0.540543009008 0.63870732728 0.0
0.637162327305 0.543340896084 0.0
0.330901877344 0.132374664224 0.0
0.867621637474 0.669121659111 0.0
0.568304732697 0.283372878796 0.0
0.44386733571 0.229232542433 0.0
0.770764582259 0.556171157423 0.0
0.716638839401 0.431735531279 0.0
0.0939105257958 0.653235593588 0.0
0.10397761331 0.507913534228 0.0
0.492096514831 0.896051979643 0.0
0.346781207497 0.90611545714 0.0
0.227701757251 0.451556660912 0.0
0.282807381785 0.57248329315 0.0
0.427537377486 0.717233149994 0.0
0.5484531279 0.772343187913 0.0
0.889343441356 0.110668090088 0.0
0.898482032863 0.231487993286 0.0
0.768530805461 0.101530719658 0.0
0.906043221592 0.36154317367 0.0
0.89559866476 0.508003141097 0.0
0.492021508417 0.104399944233 0.0
0.638477557839 0.0939635064091 0.0
0.308271872593 0.691761943487 0.0
0.322316316546 0.803299327138 0.0
0.196737828791 0.677712716682 0.0
0.671413309851 0.197137664847 0.0
0.802880222863 0.328620896534 0.0
0.68987677981 0.310152634717 0.0

CELLS 120 480
3 1 34 8
3 34 35 8
3 34 28 35
3 8 35 7
3 1 9 34
3 9 36 34
3 9 10 36
3 34 36 28
3 2 37 13
3 37 38 13
3 37 27 38
3 13 38 12
3 0 4 40
3 4 39 40
3 4 5 39
3 40 39 26
3 24 41 43
3 41 42 43
3 41 25 42
3 43 42 26
3 24 44 41
3 44 45 41
3 44 27 45
3 41 45 25
3 0 40 23
3 40 46 23
3 40 26 46
3 23 46 22
3 2 14 37
3 14 47 37
3 14 15 47
3 37 47 27
3 25 48 42
3 48 49 42
3 48 31 49
3 42 49 26
3 25 45 51
3 45 50 51
3 45 27 50
3 51 50 30
3 5 6 53
3 6 52 53
3 6 7 52
3 53 52 32
3 10 11 55
3 11 54 55
3 11 12 54
3 55 54 33
3 24 43 57
3 43 56 57
3 43 26 56
3 57 56 32
3 24 58 44
3 58 59 44
3 58 33 59
3 44 59 27
3 3 60 18
3 60 61 18
3 60 29 61
3 18 61 17
3 3 19 60
3 19 62 60
3 19 20 62
3 60 62 29
3 5 53 39
3 53 56 39
3 53 32 56
3 39 56 26
3 12 38 54
3 38 59 54
3 38 27 59
3 54 59 33
3 15 16 64
3 16 63 64
3 16 17 63
3 64 63 30
3 20 21 66
3 21 65 66
3 21 22 65
3 66 65 31
3 22 46 65
3 46 49 65
3 46 26 49
3 65 49 31
3 15 64 47
3 64 50 47
3 64 30 50
3 47 50 27
3 24 67 58
3 67 68 58
3 67 28 68
3 58 68 33
3 24 57 67
3 57 69 67
3 57 32 69
3 67 69 28
3 7 35 52
3 35 69 52
3 35 28 69
3 52 69 32
3 10 55 36
3 55 68 36
3 55 33 68
3 36 68 28
3 20 66 62
3 66 70 62
3 66 31 70
3 62 70 29
3 17 61 63
3 61 71 63
3 61 29 71
3 63 71 30
3 25 72 48
3 72 70 48
3 72 29 70
3 48 70 31
3 25 51 72
3 51 71 72
3 51 30 71
3 72 71 29

CELL_TYPES 120
5 5 5 5 5 5 5 5 5 5 5 5 5 5 5 5 5 5 5 5 5 5 5 5 5 5 5 5 5 5 5 5 5 5 5 5 5 5 5 5 5 5 5 5 5 5 5 5 5 5 5 5 5 5 5 5 5 5 5 5 5 5 5 5 5 5 5 5 5 5 5 5 5 5 5 5 5 5 5 5 5 5 5 5 5 5 5 5 5 5 5 5 5 5 5 5 5 5 5 5 5 5 5 5 5 5 5 5 5 5 5 5 5 5 5 5 5 5 5 5 

POINT_DATA 73
