# vtk DataFile Version 1.0
2D Simulation C++
ASCII
DATASET UNSTRUCTURED_GRID
FIELD FieldData 1
NODES 1 2 int
73 120

POINTS 73 double
0.0 0.0 0.0
0.0 1.0 0.0
1.0 1.0 0.0
1.0 0.0 0.0
0.0 0.224003374577 0.0
0.0 0.448006749153 0.0
0.0 0.608711063862 0.0
0.0 0.769415378571 0.0
0.0 0.884707689285 0.0
0.115292325616 1.0 0.0
0.230584651232 1.0 0.0
0.391288936138 1.0 0.0
0.551993250847 1.0 0.0
0.775996625423 1.0 0.0
1.0 0.789787709713 0.0
1.0 0.579575359821 0.0
1.0 0.41641998291 0.0
1.0 0.253264576197 0.0
1.0 0.126632288098 0.0
0.873367726803 0.0 0.0
0.746735394001 0.0 0.0
0.583580076694 0.0 0.0
0.420424699783 0.0 0.0
0.210212349892 0.0 0.0
0.405152569694 0.594874138028 0.0
0.593515734134 0.406508317038 0.0
0.297639946214 0.30235657089 0.0
0.697641797151 0.702399333624 0.0
0.209497505174 0.790534231035 0.0
0.787667404117 0.212357729411 0.0
0.818666399718 0.438348059311 0.0
0.561688500498 0.181339204175 0.0
0.181147113171 0.571088032457 0.0
0.428932091484 0.818894537134 0.0
0.107537987847 0.892478025902 0.0
0.100959417814 0.777872743876 0.0
0.222147668198 0.899062802696 0.0
0.836613365661 0.842420615511 0.0
0.65667536657 0.870348519375 0.0
0.129680074173 0.343328806687 0.0
0.157597624291 0.163386289964 0.0
0.499398418636 0.500623209338 0.0
0.456662159436 0.362849940571 0.0
0.36130762565 0.459462821778 0.0
0.540546367002 0.638730636733 0.0
0.637154187225 0.543376358345 0.0
0.330880962255 0.132368523625 0.0
0.86762798361 0.669142269583 0.0
0.568259686086 0.283393939086 0.0
0.443827865319 0.22923416128 0.0
0.770763288572 0.556210216524 0.0
0.71661788129 0.431780240514 0.0
0.0939026406047 0.653226634213 0.0
0.103965450108 0.507901571204 0.0
0.492108340971 0.896063719165 0.0
0.346789881848 0.906123079647 0.0
0.227680249698 0.451541463037 0.0
0.282792303997 0.572474984066 0.0
0.427545652852 0.717247899732 0.0
0.548468367799 0.772364100456 0.0
0.889327808647 0.110683588777 0.0
0.898465329022 0.231510964372 0.0
0.768507632638 0.101547260674 0.0
0.906032736919 0.361567915656 0.0
0.895597672459 0.508027518112 0.0
0.491996841112 0.10440106729 0.0
0.638452596429 0.0939739281269 0.0
0.308269088814 0.691764493149 0.0
0.322323604658 0.803308292147 0.0
0.19672853592 0.677705075239 0.0
0.671371860779 0.197162663816 0.0
0.802855061408 0.328662001065 0.0
0.689838759533 0.310190434444 0.0

CELLS 120 480
3 1 34 8
3 34 35 8
3 34 28 35
3 8 35 7
3 1 9 34
3 9 36 34
3 9 10 36
3 34 36 28
3 2 37 13
3 37 38 13
3 37 27 38
3 13 38 12
3 0 4 40
3 4 39 40
3 4 5 39
3 40 39 26
3 24 41 43
3 41 42 43
3 41 25 42
3 43 42 26
3 24 44 41
3 44 45 41
3 44 27 45
3 41 45 25
3 0 40 23
3 40 46 23
3 40 26 46
3 23 46 22
3 2 14 37
3 14 47 37
3 14 15 47
3 37 47 27
3 25 48 42
3 48 49 42
3 48 31 49
3 42 49 26
3 25 45 51
3 45 50 51
3 45 27 50
3 51 50 30
3 5 6 53
3 6 52 53
3 6 7 52
3 53 52 32
3 10 11 55
3 11 54 55
3 11 12 54
3 55 54 33
3 24 43 57
3 43 56 57
3 43 26 56
3 57 56 32
3 24 58 44
3 58 59 44
3 58 33 59
3 44 59 27
3 3 60 18
3 60 61 18
3 60 29 61
3 18 61 17
3 3 19 60
3 19 62 60
3 19 20 62
3 60 62 29
3 5 53 39
3 53 56 39
3 53 32 56
3 39 56 26
3 12 38 54
3 38 59 54
3 38 27 59
3 54 59 33
3 15 16 64
3 16 63 64
3 16 17 63
3 64 63 30
3 20 21 66
3 21 65 66
3 21 22 65
3 66 65 31
3 22 46 65
3 46 49 65
3 46 26 49
3 65 49 31
3 15 64 47
3 64 50 47
3 64 30 50
3 47 50 27
3 24 67 58
3 67 68 58
3 67 28 68
3 58 68 33
3 24 57 67
3 57 69 67
3 57 32 69
3 67 69 28
3 7 35 52
3 35 69 52
3 35 28 69
3 52 69 32
3 10 55 36
3 55 68 36
3 55 33 68
3 36 68 28
3 20 66 62
3 66 70 62
3 66 31 70
3 62 70 29
3 17 61 63
3 61 71 63
3 61 29 71
3 63 71 30
3 25 72 48
3 72 70 48
3 72 29 70
3 48 70 31
3 25 51 72
3 51 71 72
3 51 30 71
3 72 71 29

CELL_TYPES 120
5 5 5 5 5 5 5 5 5 5 5 5 5 5 5 5 5 5 5 5 5 5 5 5 5 5 5 5 5 5 5 5 5 5 5 5 5 5 5 5 5 5 5 5 5 5 5 5 5 5 5 5 5 5 5 5 5 5 5 5 5 5 5 5 5 5 5 5 5 5 5 5 5 5 5 5 5 5 5 5 5 5 5 5 5 5 5 5 5 5 5 5 5 5 5 5 5 5 5 5 5 5 5 5 5 5 5 5 5 5 5 5 5 5 5 5 5 5 5 5 

POINT_DATA 73
