# vtk DataFile Version 1.0
2D Simulation C++
ASCII
DATASET UNSTRUCTURED_GRID
FIELD FieldData 1
NODES 1 2 int
73 120

POINTS 73 double
0.0 0.0 0.0
0.0 1.0 0.0
1.0 1.0 0.0
1.0 0.0 0.0
0.0 0.224003374577 0.0
0.0 0.448006749153 0.0
0.0 0.608711063862 0.0
0.0 0.769415378571 0.0
0.0 0.884707689285 0.0
0.115292325616 1.0 0.0
0.230584651232 1.0 0.0
0.391288936138 1.0 0.0
0.551993250847 1.0 0.0
0.775996625423 1.0 0.0
1.0 0.789787709713 0.0
1.0 0.579575359821 0.0
1.0 0.41641998291 0.0
1.0 0.253264576197 0.0
1.0 0.126632288098 0.0
0.873367726803 0.0 0.0
0.746735394001 0.0 0.0
0.583580076694 0.0 0.0
0.420424699783 0.0 0.0
0.210212349892 0.0 0.0
0.40490009165 0.595124594405 0.0
0.592656818611 0.407365933682 0.0
0.296887766853 0.302193153792 0.0
0.69781150802 0.703139500866 0.0
0.209464318481 0.790557808788 0.0
0.786833210669 0.213185000623 0.0
0.818311166323 0.439419565852 0.0
0.560606896174 0.181696305349 0.0
0.180731064707 0.570758759258 0.0
0.429256253264 0.819298693712 0.0
0.107530083226 0.89248006039 0.0
0.100858967558 0.777780409787 0.0
0.222232368339 0.899156601765 0.0
0.836783198703 0.84276582844 0.0
0.656910196821 0.870755734579 0.0
0.12926261289 0.343094098939 0.0
0.157246181484 0.163218508899 0.0
0.498863830049 0.501158297855 0.0
0.455706369846 0.363152996612 0.0
0.360652870921 0.459470922087 0.0
0.540543117585 0.639376904491 0.0
0.636857895599 0.544324009433 0.0
0.330352327911 0.132255650515 0.0
0.867745424644 0.669663534597 0.0
0.567087172457 0.283995875536 0.0
0.442817899337 0.22934216793 0.0
0.77066228734 0.557209603087 0.0
0.716017778819 0.432943415135 0.0
0.0936966588762 0.653027843173 0.0
0.103641831215 0.507643527375 0.0
0.492363673926 0.896377410661 0.0
0.346982663508 0.906321723497 0.0
0.227102880374 0.451232798466 0.0
0.282372780552 0.57232472415 0.0
0.427694199747 0.717658286515 0.0
0.548777718219 0.77292763774 0.0
0.88892565067 0.111082376678 0.0
0.898027385269 0.232095113357 0.0
0.767918154254 0.101981568419 0.0
0.905746301536 0.362189908028 0.0
0.89554010007 0.508639224916 0.0
0.491377710837 0.104461766569 0.0
0.637824719259 0.0942593701536 0.0
0.308171874883 0.691854846181 0.0
0.322483067266 0.803541791238 0.0
0.196485653035 0.677537361146 0.0
0.670309243227 0.197835533017 0.0
0.802178667653 0.329715547736 0.0
0.688830806174 0.311192523036 0.0

CELLS 120 480
3 1 34 8
3 34 35 8
3 34 28 35
3 8 35 7
3 1 9 34
3 9 36 34
3 9 10 36
3 34 36 28
3 2 37 13
3 37 38 13
3 37 27 38
3 13 38 12
3 0 4 40
3 4 39 40
3 4 5 39
3 40 39 26
3 24 41 43
3 41 42 43
3 41 25 42
3 43 42 26
3 24 44 41
3 44 45 41
3 44 27 45
3 41 45 25
3 0 40 23
3 40 46 23
3 40 26 46
3 23 46 22
3 2 14 37
3 14 47 37
3 14 15 47
3 37 47 27
3 25 48 42
3 48 49 42
3 48 31 49
3 42 49 26
3 25 45 51
3 45 50 51
3 45 27 50
3 51 50 30
3 5 6 53
3 6 52 53
3 6 7 52
3 53 52 32
3 10 11 55
3 11 54 55
3 11 12 54
3 55 54 33
3 24 43 57
3 43 56 57
3 43 26 56
3 57 56 32
3 24 58 44
3 58 59 44
3 58 33 59
3 44 59 27
3 3 60 18
3 60 61 18
3 60 29 61
3 18 61 17
3 3 19 60
3 19 62 60
3 19 20 62
3 60 62 29
3 5 53 39
3 53 56 39
3 53 32 56
3 39 56 26
3 12 38 54
3 38 59 54
3 38 27 59
3 54 59 33
3 15 16 64
3 16 63 64
3 16 17 63
3 64 63 30
3 20 21 66
3 21 65 66
3 21 22 65
3 66 65 31
3 22 46 65
3 46 49 65
3 46 26 49
3 65 49 31
3 15 64 47
3 64 50 47
3 64 30 50
3 47 50 27
3 24 67 58
3 67 68 58
3 67 28 68
3 58 68 33
3 24 57 67
3 57 69 67
3 57 32 69
3 67 69 28
3 7 35 52
3 35 69 52
3 35 28 69
3 52 69 32
3 10 55 36
3 55 68 36
3 55 33 68
3 36 68 28
3 20 66 62
3 66 70 62
3 66 31 70
3 62 70 29
3 17 61 63
3 61 71 63
3 61 29 71
3 63 71 30
3 25 72 48
3 72 70 48
3 72 29 70
3 48 70 31
3 25 51 72
3 51 71 72
3 51 30 71
3 72 71 29

CELL_TYPES 120
5 5 5 5 5 5 5 5 5 5 5 5 5 5 5 5 5 5 5 5 5 5 5 5 5 5 5 5 5 5 5 5 5 5 5 5 5 5 5 5 5 5 5 5 5 5 5 5 5 5 5 5 5 5 5 5 5 5 5 5 5 5 5 5 5 5 5 5 5 5 5 5 5 5 5 5 5 5 5 5 5 5 5 5 5 5 5 5 5 5 5 5 5 5 5 5 5 5 5 5 5 5 5 5 5 5 5 5 5 5 5 5 5 5 5 5 5 5 5 5 

POINT_DATA 73
