# vtk DataFile Version 1.0
2D Simulation C++
ASCII
DATASET UNSTRUCTURED_GRID
FIELD FieldData 1
NODES 1 2 int
73 120

POINTS 73 double
0.0 0.0 0.0
0.0 1.0 0.0
1.0 1.0 0.0
1.0 0.0 0.0
0.0 0.224003374577 0.0
0.0 0.448006749153 0.0
0.0 0.608711063862 0.0
0.0 0.769415378571 0.0
0.0 0.884707689285 0.0
0.115292325616 1.0 0.0
0.230584651232 1.0 0.0
0.391288936138 1.0 0.0
0.551993250847 1.0 0.0
0.775996625423 1.0 0.0
1.0 0.789787709713 0.0
1.0 0.579575359821 0.0
1.0 0.41641998291 0.0
1.0 0.253264576197 0.0
1.0 0.126632288098 0.0
0.873367726803 0.0 0.0
0.746735394001 0.0 0.0
0.583580076694 0.0 0.0
0.420424699783 0.0 0.0
0.210212349892 0.0 0.0
0.404662211189 0.595359466748 0.0
0.592052639814 0.407967677115 0.0
0.296405946254 0.302185324071 0.0
0.697821681033 0.70361466826 0.0
0.209430308975 0.790586286548 0.0
0.786304812033 0.213709343597 0.0
0.818030966686 0.440070778527 0.0
0.559949237715 0.181977328645 0.0
0.180449625511 0.570632433096 0.0
0.42937990851 0.819572756492 0.0
0.107525232808 0.892481971293 0.0
0.100796749345 0.777741217874 0.0
0.222267969363 0.899214726942 0.0
0.836845029662 0.842977130091 0.0
0.656997491912 0.871016549337 0.0
0.128996734308 0.343006948816 0.0
0.157031689743 0.163157641354 0.0
0.498440342881 0.501580002135 0.0
0.455068376079 0.363443546141 0.0
0.360188412906 0.459582659779 0.0
0.540432118008 0.6398356595 0.0
0.636569133888 0.544956236244 0.0
0.330032573743 0.132240520422 0.0
0.867762490773 0.669979155558 0.0
0.566340235033 0.284444414129 0.0
0.442192594681 0.229492843789 0.0
0.770514344847 0.557828386738 0.0
0.715569241468 0.433683968761 0.0
0.0935612185167 0.65294464168 0.0
0.103428793764 0.507539990548 0.0
0.4924660629 0.896585138439 0.0
0.347063157484 0.906452397959 0.0
0.226715188215 0.451138445953 0.0
0.282067441625 0.572316081678 0.0
0.427700796834 0.717957249189 0.0
0.548871894019 0.773307748561 0.0
0.88867565187 0.111330393952 0.0
0.897744167675 0.232451819932 0.0
0.767558108847 0.102262937219 0.0
0.9055433531 0.362563094963 0.0
0.89546076433 0.50900508127 0.0
0.49100740487 0.104542557824 0.0
0.637447791811 0.0944620099047 0.0
0.308065101973 0.691956542118 0.0
0.322534333508 0.803703519036 0.0
0.196317500478 0.677481572805 0.0
0.669650907981 0.198291784392 0.0
0.801720474311 0.330368111343 0.0
0.688168238342 0.311851056714 0.0

CELLS 120 480
3 1 34 8
3 34 35 8
3 34 28 35
3 8 35 7
3 1 9 34
3 9 36 34
3 9 10 36
3 34 36 28
3 2 37 13
3 37 38 13
3 37 27 38
3 13 38 12
3 0 4 40
3 4 39 40
3 4 5 39
3 40 39 26
3 24 41 43
3 41 42 43
3 41 25 42
3 43 42 26
3 24 44 41
3 44 45 41
3 44 27 45
3 41 45 25
3 0 40 23
3 40 46 23
3 40 26 46
3 23 46 22
3 2 14 37
3 14 47 37
3 14 15 47
3 37 47 27
3 25 48 42
3 48 49 42
3 48 31 49
3 42 49 26
3 25 45 51
3 45 50 51
3 45 27 50
3 51 50 30
3 5 6 53
3 6 52 53
3 6 7 52
3 53 52 32
3 10 11 55
3 11 54 55
3 11 12 54
3 55 54 33
3 24 43 57
3 43 56 57
3 43 26 56
3 57 56 32
3 24 58 44
3 58 59 44
3 58 33 59
3 44 59 27
3 3 60 18
3 60 61 18
3 60 29 61
3 18 61 17
3 3 19 60
3 19 62 60
3 19 20 62
3 60 62 29
3 5 53 39
3 53 56 39
3 53 32 56
3 39 56 26
3 12 38 54
3 38 59 54
3 38 27 59
3 54 59 33
3 15 16 64
3 16 63 64
3 16 17 63
3 64 63 30
3 20 21 66
3 21 65 66
3 21 22 65
3 66 65 31
3 22 46 65
3 46 49 65
3 46 26 49
3 65 49 31
3 15 64 47
3 64 50 47
3 64 30 50
3 47 50 27
3 24 67 58
3 67 68 58
3 67 28 68
3 58 68 33
3 24 57 67
3 57 69 67
3 57 32 69
3 67 69 28
3 7 35 52
3 35 69 52
3 35 28 69
3 52 69 32
3 10 55 36
3 55 68 36
3 55 33 68
3 36 68 28
3 20 66 62
3 66 70 62
3 66 31 70
3 62 70 29
3 17 61 63
3 61 71 63
3 61 29 71
3 63 71 30
3 25 72 48
3 72 70 48
3 72 29 70
3 48 70 31
3 25 51 72
3 51 71 72
3 51 30 71
3 72 71 29

CELL_TYPES 120
5 5 5 5 5 5 5 5 5 5 5 5 5 5 5 5 5 5 5 5 5 5 5 5 5 5 5 5 5 5 5 5 5 5 5 5 5 5 5 5 5 5 5 5 5 5 5 5 5 5 5 5 5 5 5 5 5 5 5 5 5 5 5 5 5 5 5 5 5 5 5 5 5 5 5 5 5 5 5 5 5 5 5 5 5 5 5 5 5 5 5 5 5 5 5 5 5 5 5 5 5 5 5 5 5 5 5 5 5 5 5 5 5 5 5 5 5 5 5 5 

POINT_DATA 73
