# vtk DataFile Version 1.0
2D Simulation C++
ASCII
DATASET UNSTRUCTURED_GRID
FIELD FieldData 1
NODES 1 2 int
73 120

POINTS 73 double
0.0 0.0 0.0
0.0 1.0 0.0
1.0 1.0 0.0
1.0 0.0 0.0
0.0 0.224003374577 0.0
0.0 0.448006749153 0.0
0.0 0.608711063862 0.0
0.0 0.769415378571 0.0
0.0 0.884707689285 0.0
0.115292325616 1.0 0.0
0.230584651232 1.0 0.0
0.391288936138 1.0 0.0
0.551993250847 1.0 0.0
0.775996625423 1.0 0.0
1.0 0.789787709713 0.0
1.0 0.579575359821 0.0
1.0 0.41641998291 0.0
1.0 0.253264576197 0.0
1.0 0.126632288098 0.0
0.873367726803 0.0 0.0
0.746735394001 0.0 0.0
0.583580076694 0.0 0.0
0.420424699783 0.0 0.0
0.210212349892 0.0 0.0
0.405385832919 0.594627735103 0.0
0.595697384928 0.404308236237 0.0
0.300004587489 0.30372029471 0.0
0.696239878093 0.700097051156 0.0
0.209926335647 0.790145163829 0.0
0.790296743348 0.209756268318 0.0
0.819505930684 0.434580513809 0.0
0.565481521818 0.180504479978 0.0
0.18229816507 0.572790124464 0.0
0.427252362315 0.817770381937 0.0
0.107828470753 0.892219444141 0.0
0.101548512602 0.778131973451 0.0
0.221942291217 0.898487264282 0.0
0.835635602348 0.841267313353 0.0
0.655284115304 0.869098895521 0.0
0.13100068229 0.344737831033 0.0
0.158785627473 0.164368109912 0.0
0.500347218001 0.499642485223 0.0
0.459415354377 0.362715922499 0.0
0.362963966048 0.460329597143 0.0
0.539632884448 0.637105742697 0.0
0.637234699844 0.540635518818 0.0
0.332745228282 0.13317587542 0.0
0.866799300291 0.667306278758 0.0
0.571980554854 0.282013738635 0.0
0.447258225234 0.229482647169 0.0
0.770477427676 0.552810930054 0.0
0.717989898321 0.428078531706 0.0
0.0945502005536 0.65421243798 0.0
0.104869574268 0.509344015114 0.0
0.49068981797 0.895203068281 0.0
0.34584962185 0.905478160099 0.0
0.229308513999 0.453451805963 0.0
0.283879558922 0.573531841357 0.0
0.426483926441 0.716182354271 0.0
0.546546997592 0.770815844396 0.0
0.890629677371 0.109392114344 0.0
0.899817250092 0.229508256943 0.0
0.77052390396 0.100214355045 0.0
0.906883349841 0.359313376926 0.0
0.895563546462 0.505792999288 0.0
0.494252704808 0.104425758549 0.0
0.640720526112 0.0931381904569 0.0
0.308510933226 0.691536387072 0.0
0.321698271341 0.802430465856 0.0
0.19761519755 0.678374229378 0.0
0.674912064221 0.195239889621 0.0
0.804804970729 0.325148494929 0.0
0.692820824724 0.307230621313 0.0

CELLS 120 480
3 1 34 8
3 34 35 8
3 34 28 35
3 8 35 7
3 1 9 34
3 9 36 34
3 9 10 36
3 34 36 28
3 2 37 13
3 37 38 13
3 37 27 38
3 13 38 12
3 0 4 40
3 4 39 40
3 4 5 39
3 40 39 26
3 24 41 43
3 41 42 43
3 41 25 42
3 43 42 26
3 24 44 41
3 44 45 41
3 44 27 45
3 41 45 25
3 0 40 23
3 40 46 23
3 40 26 46
3 23 46 22
3 2 14 37
3 14 47 37
3 14 15 47
3 37 47 27
3 25 48 42
3 48 49 42
3 48 31 49
3 42 49 26
3 25 45 51
3 45 50 51
3 45 27 50
3 51 50 30
3 5 6 53
3 6 52 53
3 6 7 52
3 53 52 32
3 10 11 55
3 11 54 55
3 11 12 54
3 55 54 33
3 24 43 57
3 43 56 57
3 43 26 56
3 57 56 32
3 24 58 44
3 58 59 44
3 58 33 59
3 44 59 27
3 3 60 18
3 60 61 18
3 60 29 61
3 18 61 17
3 3 19 60
3 19 62 60
3 19 20 62
3 60 62 29
3 5 53 39
3 53 56 39
3 53 32 56
3 39 56 26
3 12 38 54
3 38 59 54
3 38 27 59
3 54 59 33
3 15 16 64
3 16 63 64
3 16 17 63
3 64 63 30
3 20 21 66
3 21 65 66
3 21 22 65
3 66 65 31
3 22 46 65
3 46 49 65
3 46 26 49
3 65 49 31
3 15 64 47
3 64 50 47
3 64 30 50
3 47 50 27
3 24 67 58
3 67 68 58
3 67 28 68
3 58 68 33
3 24 57 67
3 57 69 67
3 57 32 69
3 67 69 28
3 7 35 52
3 35 69 52
3 35 28 69
3 52 69 32
3 10 55 36
3 55 68 36
3 55 33 68
3 36 68 28
3 20 66 62
3 66 70 62
3 66 31 70
3 62 70 29
3 17 61 63
3 61 71 63
3 61 29 71
3 63 71 30
3 25 72 48
3 72 70 48
3 72 29 70
3 48 70 31
3 25 51 72
3 51 71 72
3 51 30 71
3 72 71 29

CELL_TYPES 120
5 5 5 5 5 5 5 5 5 5 5 5 5 5 5 5 5 5 5 5 5 5 5 5 5 5 5 5 5 5 5 5 5 5 5 5 5 5 5 5 5 5 5 5 5 5 5 5 5 5 5 5 5 5 5 5 5 5 5 5 5 5 5 5 5 5 5 5 5 5 5 5 5 5 5 5 5 5 5 5 5 5 5 5 5 5 5 5 5 5 5 5 5 5 5 5 5 5 5 5 5 5 5 5 5 5 5 5 5 5 5 5 5 5 5 5 5 5 5 5 

POINT_DATA 73
