# vtk DataFile Version 1.0
2D Simulation C++
ASCII
DATASET UNSTRUCTURED_GRID
FIELD FieldData 1
NODES 1 2 int
66 106

POINTS 66 double
0.0 0.0 0.0
0.0 1.0 0.0
1.0 1.0 0.0
1.0 0.0 0.0
0.0 0.224003374577 0.0
0.0 0.448006749153 0.0
0.0 0.608711063862 0.0
0.0 0.769415378571 0.0
0.0 0.884707689285 0.0
0.115292325616 1.0 0.0
0.230584651232 1.0 0.0
0.391288936138 1.0 0.0
0.551993250847 1.0 0.0
0.775996625423 1.0 0.0
1.0 0.789787709713 0.0
1.0 0.579575359821 0.0
1.0 0.41641998291 0.0
1.0 0.253264576197 0.0
1.0 0.126632288098 0.0
0.873367726803 0.0 0.0
0.746735394001 0.0 0.0
0.583580076694 0.0 0.0
0.420424699783 0.0 0.0
0.210212349892 0.0 0.0
0.527163015199 0.488694143521 0.0
0.31337035065 0.689556889663 0.0
0.696819098146 0.282714078933 0.0
0.60574645519 0.742995241214 0.0
0.261232170934 0.398263215763 0.0
0.460828678449 0.249595896546 0.0
0.755901824269 0.564551865535 0.0
0.20052446953 0.800629634163 0.0
0.798870507924 0.194338675158 0.0
0.792285140911 0.772847580122 0.0
0.230824613881 0.209708995831 0.0
0.85020284629 0.333286115985 0.0
0.670158434395 0.128946146816 0.0
0.328997019096 0.862068817365 0.0
0.13904378179 0.672379644555 0.0
0.47888614065 0.63434440289 0.0
0.564944885321 0.350427262854 0.0
0.419584438863 0.386429540545 0.0
0.626532305793 0.588497751404 0.0
0.677795347151 0.881736776642 0.0
0.119867676024 0.323550752997 0.0
0.500864882972 0.875155459501 0.0
0.126166068863 0.500718806956 0.0
0.356420396205 0.135420658236 0.0
0.865639724302 0.650027188927 0.0
0.510918080314 0.120655625264 0.0
0.862402244238 0.493774885107 0.0
0.371916816674 0.527937700359 0.0
0.69793575352 0.440453121448 0.0
0.10017316762 0.900223411771 0.0
0.443932695535 0.761426254286 0.0
0.581952415066 0.225979498411 0.0
0.897458587794 0.100979681393 0.0
0.793810917593 0.0864726574268 0.0
0.907511725572 0.206667876787 0.0
0.199870489393 0.910549900703 0.0
0.0899530971361 0.800810190153 0.0
0.241290973149 0.559208565399 0.0
0.855933808026 0.890102039366 0.0
0.110900201869 0.144873237854 0.0
0.726533729193 0.667758186964 0.0
0.342247969498 0.277931127787 0.0

CELLS 106 424
3 25 31 37
3 25 38 31
3 24 41 51
3 26 52 35
3 24 42 52
3 35 52 50
3 26 32 36
3 26 35 32
3 24 51 39
3 27 43 33
3 28 34 44
3 27 33 64
3 28 65 34
3 17 35 16
3 20 21 36
3 24 52 40
3 28 51 41
3 10 11 37
3 7 38 6
3 30 52 42
3 14 48 33
3 23 34 47
3 12 13 43
3 5 44 4
3 15 50 48
3 22 47 49
3 22 23 47
3 15 48 14
3 27 64 42
3 28 41 65
3 24 39 42
3 33 43 62
3 34 63 44
3 1 53 8
3 1 9 53
3 27 42 39
3 5 46 44
3 12 43 45
3 24 40 41
3 25 37 54
3 29 41 40
3 10 37 59
3 7 60 38
3 20 36 57
3 17 58 35
3 25 61 38
3 32 57 36
3 32 35 58
3 28 44 46
3 27 45 43
3 15 16 50
3 22 49 21
3 31 59 37
3 31 38 60
3 30 50 52
3 29 49 47
3 30 48 50
3 13 62 43
3 4 44 63
3 14 33 62
3 23 63 34
3 21 49 36
3 16 35 50
3 5 6 46
3 12 45 11
3 3 56 18
3 3 19 56
3 28 61 51
3 28 46 61
3 25 39 51
3 11 45 37
3 6 38 46
3 26 40 52
3 26 36 55
3 25 54 39
3 37 45 54
3 26 55 40
3 7 8 60
3 10 59 9
3 27 39 54
3 2 62 13
3 0 4 63
3 29 40 55
3 2 14 62
3 0 63 23
3 20 57 19
3 17 18 58
3 36 49 55
3 27 54 45
3 38 61 46
3 29 55 49
3 8 53 60
3 9 59 53
3 29 47 65
3 30 64 48
3 29 65 41
3 30 42 64
3 25 51 61
3 34 65 47
3 33 48 64
3 31 53 59
3 31 60 53
3 19 57 56
3 18 56 58
3 32 56 57
3 32 58 56

CELL_TYPES 106
5 5 5 5 5 5 5 5 5 5 5 5 5 5 5 5 5 5 5 5 5 5 5 5 5 5 5 5 5 5 5 5 5 5 5 5 5 5 5 5 5 5 5 5 5 5 5 5 5 5 5 5 5 5 5 5 5 5 5 5 5 5 5 5 5 5 5 5 5 5 5 5 5 5 5 5 5 5 5 5 5 5 5 5 5 5 5 5 5 5 5 5 5 5 5 5 5 5 5 5 5 5 5 5 5 5 

POINT_DATA 66
