# vtk DataFile Version 1.0
2D Simulation C++
ASCII
DATASET UNSTRUCTURED_GRID
FIELD FieldData 1
NODES 1 2 int
73 120

POINTS 73 double
0.0 0.0 0.0
0.0 1.0 0.0
1.0 1.0 0.0
1.0 0.0 0.0
0.0 0.224003374577 0.0
0.0 0.448006749153 0.0
0.0 0.608711063862 0.0
0.0 0.769415378571 0.0
0.0 0.884707689285 0.0
0.115292325616 1.0 0.0
0.230584651232 1.0 0.0
0.391288936138 1.0 0.0
0.551993250847 1.0 0.0
0.775996625423 1.0 0.0
1.0 0.789787709713 0.0
1.0 0.579575359821 0.0
1.0 0.41641998291 0.0
1.0 0.253264576197 0.0
1.0 0.126632288098 0.0
0.873367726803 0.0 0.0
0.746735394001 0.0 0.0
0.583580076694 0.0 0.0
0.420424699783 0.0 0.0
0.210212349892 0.0 0.0
0.404834263686 0.595189637456 0.0
0.592475479764 0.407546656418 0.0
0.29673923539 0.302181761917 0.0
0.697823776596 0.703285912773 0.0
0.209456166083 0.790564204594 0.0
0.786669713285 0.213347221243 0.0
0.818230016487 0.439623412396 0.0
0.560401046714 0.181777772011 0.0
0.180645883564 0.570711621138 0.0
0.429302535409 0.819381567441 0.0
0.107529226152 0.892479950236 0.0
0.100840275035 0.77776587696 0.0
0.222245704238 0.899174006125 0.0
0.836806537471 0.842831894673 0.0
0.656942832892 0.87083622652 0.0
0.129180459864 0.343061523777 0.0
0.157179076271 0.163195513444 0.0
0.498740819379 0.501280933388 0.0
0.455512042541 0.363233572513 0.0
0.360513940829 0.459495296209 0.0
0.540519172177 0.639514110945 0.0
0.636778088253 0.544516605389 0.0
0.330252081836 0.132245612737 0.0
0.867756153916 0.669762459 0.0
0.566856505911 0.284128228024 0.0
0.442623235766 0.229380845578 0.0
0.770624616383 0.557402230426 0.0
0.715885545442 0.433172139807 0.0
0.093655485557 0.652997874541 0.0
0.103576642366 0.507605937523 0.0
0.492400879638 0.896440882204 0.0
0.34701172111 0.90636141107 0.0
0.226985005165 0.45119406502 0.0
0.282282490392 0.572313317152 0.0
0.427705063695 0.717746650344 0.0
0.548816464846 0.773043092775 0.0
0.888847846763 0.111159552859 0.0
0.897940355382 0.232206660586 0.0
0.76780556305 0.10206799898 0.0
0.905685780481 0.362307150625 0.0
0.895519848848 0.508754270322 0.0
0.491261259994 0.104482529244 0.0
0.63770630963 0.0943197909696 0.0
0.308144076203 0.691881130992 0.0
0.322504507568 0.80358969841 0.0
0.196435775807 0.677514477075 0.0
0.670104238958 0.197973770331 0.0
0.802039831542 0.329918761881 0.0
0.688628047279 0.31139407157 0.0

CELLS 120 480
3 1 34 8
3 34 35 8
3 34 28 35
3 8 35 7
3 1 9 34
3 9 36 34
3 9 10 36
3 34 36 28
3 2 37 13
3 37 38 13
3 37 27 38
3 13 38 12
3 0 4 40
3 4 39 40
3 4 5 39
3 40 39 26
3 24 41 43
3 41 42 43
3 41 25 42
3 43 42 26
3 24 44 41
3 44 45 41
3 44 27 45
3 41 45 25
3 0 40 23
3 40 46 23
3 40 26 46
3 23 46 22
3 2 14 37
3 14 47 37
3 14 15 47
3 37 47 27
3 25 48 42
3 48 49 42
3 48 31 49
3 42 49 26
3 25 45 51
3 45 50 51
3 45 27 50
3 51 50 30
3 5 6 53
3 6 52 53
3 6 7 52
3 53 52 32
3 10 11 55
3 11 54 55
3 11 12 54
3 55 54 33
3 24 43 57
3 43 56 57
3 43 26 56
3 57 56 32
3 24 58 44
3 58 59 44
3 58 33 59
3 44 59 27
3 3 60 18
3 60 61 18
3 60 29 61
3 18 61 17
3 3 19 60
3 19 62 60
3 19 20 62
3 60 62 29
3 5 53 39
3 53 56 39
3 53 32 56
3 39 56 26
3 12 38 54
3 38 59 54
3 38 27 59
3 54 59 33
3 15 16 64
3 16 63 64
3 16 17 63
3 64 63 30
3 20 21 66
3 21 65 66
3 21 22 65
3 66 65 31
3 22 46 65
3 46 49 65
3 46 26 49
3 65 49 31
3 15 64 47
3 64 50 47
3 64 30 50
3 47 50 27
3 24 67 58
3 67 68 58
3 67 28 68
3 58 68 33
3 24 57 67
3 57 69 67
3 57 32 69
3 67 69 28
3 7 35 52
3 35 69 52
3 35 28 69
3 52 69 32
3 10 55 36
3 55 68 36
3 55 33 68
3 36 68 28
3 20 66 62
3 66 70 62
3 66 31 70
3 62 70 29
3 17 61 63
3 61 71 63
3 61 29 71
3 63 71 30
3 25 72 48
3 72 70 48
3 72 29 70
3 48 70 31
3 25 51 72
3 51 71 72
3 51 30 71
3 72 71 29

CELL_TYPES 120
5 5 5 5 5 5 5 5 5 5 5 5 5 5 5 5 5 5 5 5 5 5 5 5 5 5 5 5 5 5 5 5 5 5 5 5 5 5 5 5 5 5 5 5 5 5 5 5 5 5 5 5 5 5 5 5 5 5 5 5 5 5 5 5 5 5 5 5 5 5 5 5 5 5 5 5 5 5 5 5 5 5 5 5 5 5 5 5 5 5 5 5 5 5 5 5 5 5 5 5 5 5 5 5 5 5 5 5 5 5 5 5 5 5 5 5 5 5 5 5 

POINT_DATA 73
