# vtk DataFile Version 1.0
2D Simulation C++
ASCII
DATASET UNSTRUCTURED_GRID
FIELD FieldData 1
NODES 1 2 int
73 120

POINTS 73 double
0.0 0.0 0.0
0.0 1.0 0.0
1.0 1.0 0.0
1.0 0.0 0.0
0.0 0.224003374577 0.0
0.0 0.448006749153 0.0
0.0 0.608711063862 0.0
0.0 0.769415378571 0.0
0.0 0.884707689285 0.0
0.115292325616 1.0 0.0
0.230584651232 1.0 0.0
0.391288936138 1.0 0.0
0.551993250847 1.0 0.0
0.775996625423 1.0 0.0
1.0 0.789787709713 0.0
1.0 0.579575359821 0.0
1.0 0.41641998291 0.0
1.0 0.253264576197 0.0
1.0 0.126632288098 0.0
0.873367726803 0.0 0.0
0.746735394001 0.0 0.0
0.583580076694 0.0 0.0
0.420424699783 0.0 0.0
0.210212349892 0.0 0.0
0.403224690855 0.596875028236 0.0
0.599230875805 0.400726434782 0.0
0.304846156317 0.31096857175 0.0
0.688663426618 0.695541663399 0.0
0.219756262699 0.780396044545 0.0
0.795781678221 0.204297753001 0.0
0.823016770316 0.421982898568 0.0
0.578222712753 0.177274409013 0.0
0.182736992502 0.579335884974 0.0
0.420295209895 0.816945868405 0.0
0.113177273498 0.886873617237 0.0
0.108756174658 0.775545343953 0.0
0.224972808197 0.891141033301 0.0
0.834603171129 0.841730183351 0.0
0.641775460635 0.862289685947 0.0
0.139944644202 0.36081843192 0.0
0.158469399218 0.16589743713 0.0
0.499236747406 0.500385794441 0.0
0.464249081992 0.365836148928 0.0
0.365249295976 0.466658538582 0.0
0.533111768652 0.634852864 0.0
0.63355449527 0.534676317356 0.0
0.340912832278 0.138266165129 0.0
0.861689702043 0.659082268442 0.0
0.583668464767 0.28112669187 0.0
0.459458296233 0.230695524654 0.0
0.769128927682 0.540338853347 0.0
0.719282350675 0.416563625376 0.0
0.0943285070305 0.663592356742 0.0
0.101446496246 0.517031404574 0.0
0.482542150714 0.897167630822 0.0
0.338470738022 0.904707499403 0.0
0.235280926124 0.460675426717 0.0
0.285073152999 0.577771528391 0.0
0.422515852279 0.714925444693 0.0
0.536730803318 0.767005661465 0.0
0.893486886472 0.106518801708 0.0
0.902844117249 0.223444857119 0.0
0.776570926112 0.0971737340351 0.0
0.910692960264 0.348944437415 0.0
0.899310895205 0.497205337155 0.0
0.502803568727 0.10069424193 0.0
0.651074994232 0.0893174093229 0.0
0.310737845551 0.68956873035 0.0
0.322648529965 0.79815315288 0.0
0.201571167736 0.678177997038 0.0
0.684840606373 0.190535054818 0.0
0.80965893306 0.315320425649 0.0
0.699620596614 0.300840621626 0.0

CELLS 120 480
3 1 34 8
3 34 35 8
3 34 28 35
3 8 35 7
3 1 9 34
3 9 36 34
3 9 10 36
3 34 36 28
3 2 37 13
3 37 38 13
3 37 27 38
3 13 38 12
3 0 4 40
3 4 39 40
3 4 5 39
3 40 39 26
3 24 41 43
3 41 42 43
3 41 25 42
3 43 42 26
3 24 44 41
3 44 45 41
3 44 27 45
3 41 45 25
3 0 40 23
3 40 46 23
3 40 26 46
3 23 46 22
3 2 14 37
3 14 47 37
3 14 15 47
3 37 47 27
3 25 48 42
3 48 49 42
3 48 31 49
3 42 49 26
3 25 45 51
3 45 50 51
3 45 27 50
3 51 50 30
3 5 6 53
3 6 52 53
3 6 7 52
3 53 52 32
3 10 11 55
3 11 54 55
3 11 12 54
3 55 54 33
3 24 43 57
3 43 56 57
3 43 26 56
3 57 56 32
3 24 58 44
3 58 59 44
3 58 33 59
3 44 59 27
3 3 60 18
3 60 61 18
3 60 29 61
3 18 61 17
3 3 19 60
3 19 62 60
3 19 20 62
3 60 62 29
3 5 53 39
3 53 56 39
3 53 32 56
3 39 56 26
3 12 38 54
3 38 59 54
3 38 27 59
3 54 59 33
3 15 16 64
3 16 63 64
3 16 17 63
3 64 63 30
3 20 21 66
3 21 65 66
3 21 22 65
3 66 65 31
3 22 46 65
3 46 49 65
3 46 26 49
3 65 49 31
3 15 64 47
3 64 50 47
3 64 30 50
3 47 50 27
3 24 67 58
3 67 68 58
3 67 28 68
3 58 68 33
3 24 57 67
3 57 69 67
3 57 32 69
3 67 69 28
3 7 35 52
3 35 69 52
3 35 28 69
3 52 69 32
3 10 55 36
3 55 68 36
3 55 33 68
3 36 68 28
3 20 66 62
3 66 70 62
3 66 31 70
3 62 70 29
3 17 61 63
3 61 71 63
3 61 29 71
3 63 71 30
3 25 72 48
3 72 70 48
3 72 29 70
3 48 70 31
3 25 51 72
3 51 71 72
3 51 30 71
3 72 71 29

CELL_TYPES 120
5 5 5 5 5 5 5 5 5 5 5 5 5 5 5 5 5 5 5 5 5 5 5 5 5 5 5 5 5 5 5 5 5 5 5 5 5 5 5 5 5 5 5 5 5 5 5 5 5 5 5 5 5 5 5 5 5 5 5 5 5 5 5 5 5 5 5 5 5 5 5 5 5 5 5 5 5 5 5 5 5 5 5 5 5 5 5 5 5 5 5 5 5 5 5 5 5 5 5 5 5 5 5 5 5 5 5 5 5 5 5 5 5 5 5 5 5 5 5 5 

POINT_DATA 73
