# vtk DataFile Version 1.0
2D Simulation C++
ASCII
DATASET UNSTRUCTURED_GRID
FIELD FieldData 1
NODES 1 2 int
66 106

POINTS 66 double
0.0 0.0 0.0
0.0 1.0 0.0
1.0 1.0 0.0
1.0 0.0 0.0
0.0 0.224003374577 0.0
0.0 0.448006749153 0.0
0.0 0.608711063862 0.0
0.0 0.769415378571 0.0
0.0 0.884707689285 0.0
0.115292325616 1.0 0.0
0.230584651232 1.0 0.0
0.391288936138 1.0 0.0
0.551993250847 1.0 0.0
0.775996625423 1.0 0.0
1.0 0.789787709713 0.0
1.0 0.579575359821 0.0
1.0 0.41641998291 0.0
1.0 0.253264576197 0.0
1.0 0.126632288098 0.0
0.873367726803 0.0 0.0
0.746735394001 0.0 0.0
0.583580076694 0.0 0.0
0.420424699783 0.0 0.0
0.210212349892 0.0 0.0
0.518737372899 0.492839509448 0.0
0.303507191164 0.698322200668 0.0
0.697251573902 0.281844316494 0.0
0.597382245063 0.743293107004 0.0
0.256182805109 0.407898106851 0.0
0.459782392189 0.254319221825 0.0
0.750269235033 0.561897585531 0.0
0.193869118663 0.807423810052 0.0
0.801171280249 0.192263819485 0.0
0.787755306901 0.771030613232 0.0
0.23001258806 0.21523268715 0.0
0.850085827224 0.331250214007 0.0
0.672101007434 0.128648303773 0.0
0.323064950348 0.866249334539 0.0
0.133500038078 0.679673857459 0.0
0.467795465347 0.639379186163 0.0
0.561732132385 0.353063463783 0.0
0.413802967554 0.393889788409 0.0
0.617753355605 0.588556626019 0.0
0.674244704331 0.880856063943 0.0
0.118795902827 0.328353576516 0.0
0.495621719845 0.87613068852 0.0
0.122850121251 0.507801991944 0.0
0.356498040934 0.139232718268 0.0
0.862114538601 0.64776491643 0.0
0.512073067737 0.122643268086 0.0
0.860205055737 0.491320906121 0.0
0.362041891885 0.53747042536 0.0
0.693599348439 0.439423627631 0.0
0.0971147050478 0.903474958753 0.0
0.434298169421 0.765659296152 0.0
0.582916715882 0.227634575434 0.0
0.89905723576 0.0996071667245 0.0
0.795744207198 0.0853351085577 0.0
0.908896967324 0.204895450668 0.0
0.195945840442 0.913956211822 0.0
0.086253873433 0.805523879968 0.0
0.233202415527 0.570320428612 0.0
0.854214901745 0.888966408838 0.0
0.111239267602 0.147163878534 0.0
0.719480767644 0.665639003466 0.0
0.33977066944 0.285484048261 0.0

CELLS 106 424
3 25 31 37
3 25 38 31
3 24 41 51
3 26 52 35
3 24 42 52
3 35 52 50
3 26 32 36
3 26 35 32
3 24 51 39
3 27 43 33
3 28 34 44
3 27 33 64
3 28 65 34
3 17 35 16
3 20 21 36
3 24 52 40
3 28 51 41
3 10 11 37
3 7 38 6
3 30 52 42
3 14 48 33
3 23 34 47
3 12 13 43
3 5 44 4
3 15 50 48
3 22 47 49
3 22 23 47
3 15 48 14
3 27 64 42
3 28 41 65
3 24 39 42
3 33 43 62
3 34 63 44
3 1 53 8
3 1 9 53
3 27 42 39
3 5 46 44
3 12 43 45
3 24 40 41
3 25 37 54
3 29 41 40
3 10 37 59
3 7 60 38
3 20 36 57
3 17 58 35
3 25 61 38
3 32 57 36
3 32 35 58
3 28 44 46
3 27 45 43
3 15 16 50
3 22 49 21
3 31 59 37
3 31 38 60
3 30 50 52
3 29 49 47
3 30 48 50
3 13 62 43
3 4 44 63
3 14 33 62
3 23 63 34
3 21 49 36
3 16 35 50
3 5 6 46
3 12 45 11
3 3 56 18
3 3 19 56
3 28 61 51
3 28 46 61
3 25 39 51
3 11 45 37
3 6 38 46
3 26 40 52
3 26 36 55
3 25 54 39
3 37 45 54
3 26 55 40
3 7 8 60
3 10 59 9
3 27 39 54
3 2 62 13
3 0 4 63
3 29 40 55
3 2 14 62
3 0 63 23
3 20 57 19
3 17 18 58
3 36 49 55
3 27 54 45
3 38 61 46
3 29 55 49
3 8 53 60
3 9 59 53
3 29 47 65
3 30 64 48
3 29 65 41
3 30 42 64
3 25 51 61
3 34 65 47
3 33 48 64
3 31 53 59
3 31 60 53
3 19 57 56
3 18 56 58
3 32 56 57
3 32 58 56

CELL_TYPES 106
5 5 5 5 5 5 5 5 5 5 5 5 5 5 5 5 5 5 5 5 5 5 5 5 5 5 5 5 5 5 5 5 5 5 5 5 5 5 5 5 5 5 5 5 5 5 5 5 5 5 5 5 5 5 5 5 5 5 5 5 5 5 5 5 5 5 5 5 5 5 5 5 5 5 5 5 5 5 5 5 5 5 5 5 5 5 5 5 5 5 5 5 5 5 5 5 5 5 5 5 5 5 5 5 5 5 

POINT_DATA 66
