# vtk DataFile Version 1.0
2D Simulation C++
ASCII
DATASET UNSTRUCTURED_GRID
FIELD FieldData 1
NODES 1 2 int
255 400

POINTS 255 double
0.0 0.0 0.0
0.1 0.0 0.0
0.2 0.0 0.0
0.3 0.0 0.0
0.4 0.0 0.0
0.5 0.0 0.0
0.6 0.0 0.0
0.7 0.0 0.0
0.8 0.0 0.0
0.9 0.0 0.0
1.0 0.0 0.0
1.1 0.0 0.0
1.2 0.0 0.0
1.3 0.0 0.0
1.4 0.0 0.0
1.5 0.0 0.0
1.6 0.0 0.0
1.7 0.0 0.0
1.8 0.0 0.0
1.9 0.0 0.0
2.0 0.0 0.0
2.1 0.0 0.0
2.2 0.0 0.0
2.3 0.0 0.0
2.4 0.0 0.0
2.5 0.0 0.0
2.6 0.0 0.0
2.7 0.0 0.0
2.8 0.0 0.0
2.9 0.0 0.0
3.0 0.0 0.0
3.1 0.0 0.0
3.2 0.0 0.0
3.3 0.0 0.0
3.4 0.0 0.0
3.5 0.0 0.0
3.6 0.0 0.0
3.7 0.0 0.0
3.8 0.0 0.0
3.9 0.0 0.0
4.0 0.0 0.0
4.1 0.0 0.0
4.2 0.0 0.0
4.3 0.0 0.0
4.4 0.0 0.0
4.5 0.0 0.0
4.6 0.0 0.0
4.7 0.0 0.0
4.8 0.0 0.0
4.9 0.0 0.0
5.0 0.0 0.0
0.0 0.25 0.0
0.1 0.25 0.0
0.2 0.25 0.0
0.3 0.25 0.0
0.4 0.25 0.0
0.5 0.25 0.0
0.6 0.25 0.0
0.7 0.25 0.0
0.8 0.25 0.0
0.9 0.25 0.0
1.0 0.25 0.0
1.1 0.25 0.0
1.2 0.25 0.0
1.3 0.25 0.0
1.4 0.25 0.0
1.5 0.25 0.0
1.6 0.25 0.0
1.7 0.25 0.0
1.8 0.25 0.0
1.9 0.25 0.0
2.0 0.25 0.0
2.1 0.25 0.0
2.2 0.25 0.0
2.3 0.25 0.0
2.4 0.25 0.0
2.5 0.25 0.0
2.6 0.25 0.0
2.7 0.25 0.0
2.8 0.25 0.0
2.9 0.25 0.0
3.0 0.25 0.0
3.1 0.25 0.0
3.2 0.25 0.0
3.3 0.25 0.0
3.4 0.25 0.0
3.5 0.25 0.0
3.6 0.25 0.0
3.7 0.25 0.0
3.8 0.25 0.0
3.9 0.25 0.0
4.0 0.25 0.0
4.1 0.25 0.0
4.2 0.25 0.0
4.3 0.25 0.0
4.4 0.25 0.0
4.5 0.25 0.0
4.6 0.25 0.0
4.7 0.25 0.0
4.8 0.25 0.0
4.9 0.25 0.0
5.0 0.25 0.0
0.0 0.5 0.0
0.1 0.5 0.0
0.2 0.5 0.0
0.3 0.5 0.0
0.4 0.5 0.0
0.5 0.5 0.0
0.6 0.5 0.0
0.7 0.5 0.0
0.8 0.5 0.0
0.9 0.5 0.0
1.0 0.5 0.0
1.1 0.5 0.0
1.2 0.5 0.0
1.3 0.5 0.0
1.4 0.5 0.0
1.5 0.5 0.0
1.6 0.5 0.0
1.7 0.5 0.0
1.8 0.5 0.0
1.9 0.5 0.0
2.0 0.5 0.0
2.1 0.5 0.0
2.2 0.5 0.0
2.3 0.5 0.0
2.4 0.5 0.0
2.5 0.5 0.0
2.6 0.5 0.0
2.7 0.5 0.0
2.8 0.5 0.0
2.9 0.5 0.0
3.0 0.5 0.0
3.1 0.5 0.0
3.2 0.5 0.0
3.3 0.5 0.0
3.4 0.5 0.0
3.5 0.5 0.0
3.6 0.5 0.0
3.7 0.5 0.0
3.8 0.5 0.0
3.9 0.5 0.0
4.0 0.5 0.0
4.1 0.5 0.0
4.2 0.5 0.0
4.3 0.5 0.0
4.4 0.5 0.0
4.5 0.5 0.0
4.6 0.5 0.0
4.7 0.5 0.0
4.8 0.5 0.0
4.9 0.5 0.0
5.0 0.5 0.0
0.0 0.75 0.0
0.1 0.75 0.0
0.2 0.75 0.0
0.3 0.75 0.0
0.4 0.75 0.0
0.5 0.75 0.0
0.6 0.75 0.0
0.7 0.75 0.0
0.8 0.75 0.0
0.9 0.75 0.0
1.0 0.75 0.0
1.1 0.75 0.0
1.2 0.75 0.0
1.3 0.75 0.0
1.4 0.75 0.0
1.5 0.75 0.0
1.6 0.75 0.0
1.7 0.75 0.0
1.8 0.75 0.0
1.9 0.75 0.0
2.0 0.75 0.0
2.1 0.75 0.0
2.2 0.75 0.0
2.3 0.75 0.0
2.4 0.75 0.0
2.5 0.75 0.0
2.6 0.75 0.0
2.7 0.75 0.0
2.8 0.75 0.0
2.9 0.75 0.0
3.0 0.75 0.0
3.1 0.75 0.0
3.2 0.75 0.0
3.3 0.75 0.0
3.4 0.75 0.0
3.5 0.75 0.0
3.6 0.75 0.0
3.7 0.75 0.0
3.8 0.75 0.0
3.9 0.75 0.0
4.0 0.75 0.0
4.1 0.75 0.0
4.2 0.75 0.0
4.3 0.75 0.0
4.4 0.75 0.0
4.5 0.75 0.0
4.6 0.75 0.0
4.7 0.75 0.0
4.8 0.75 0.0
4.9 0.75 0.0
5.0 0.75 0.0
0.0 1.0 0.0
0.1 1.0 0.0
0.2 1.0 0.0
0.3 1.0 0.0
0.4 1.0 0.0
0.5 1.0 0.0
0.6 1.0 0.0
0.7 1.0 0.0
0.8 1.0 0.0
0.9 1.0 0.0
1.0 1.0 0.0
1.1 1.0 0.0
1.2 1.0 0.0
1.3 1.0 0.0
1.4 1.0 0.0
1.5 1.0 0.0
1.6 1.0 0.0
1.7 1.0 0.0
1.8 1.0 0.0
1.9 1.0 0.0
2.0 1.0 0.0
2.1 1.0 0.0
2.2 1.0 0.0
2.3 1.0 0.0
2.4 1.0 0.0
2.5 1.0 0.0
2.6 1.0 0.0
2.7 1.0 0.0
2.8 1.0 0.0
2.9 1.0 0.0
3.0 1.0 0.0
3.1 1.0 0.0
3.2 1.0 0.0
3.3 1.0 0.0
3.4 1.0 0.0
3.5 1.0 0.0
3.6 1.0 0.0
3.7 1.0 0.0
3.8 1.0 0.0
3.9 1.0 0.0
4.0 1.0 0.0
4.1 1.0 0.0
4.2 1.0 0.0
4.3 1.0 0.0
4.4 1.0 0.0
4.5 1.0 0.0
4.6 1.0 0.0
4.7 1.0 0.0
4.8 1.0 0.0
4.9 1.0 0.0
5.0 1.0 0.0

CELLS 400 1600
3 0 1 52
3 1 2 53
3 2 3 54
3 3 4 55
3 4 5 56
3 5 6 57
3 6 7 58
3 7 8 59
3 8 9 60
3 9 10 61
3 10 11 62
3 11 12 63
3 12 13 64
3 13 14 65
3 14 15 66
3 15 16 67
3 16 17 68
3 17 18 69
3 18 19 70
3 19 20 71
3 20 21 72
3 21 22 73
3 22 23 74
3 23 24 75
3 24 25 76
3 25 26 77
3 26 27 78
3 27 28 79
3 28 29 80
3 29 30 81
3 30 31 82
3 31 32 83
3 32 33 84
3 33 34 85
3 34 35 86
3 35 36 87
3 36 37 88
3 37 38 89
3 38 39 90
3 39 40 91
3 40 41 92
3 41 42 93
3 42 43 94
3 43 44 95
3 44 45 96
3 45 46 97
3 46 47 98
3 47 48 99
3 48 49 100
3 49 50 101
3 51 52 103
3 52 53 104
3 53 54 105
3 54 55 106
3 55 56 107
3 56 57 108
3 57 58 109
3 58 59 110
3 59 60 111
3 60 61 112
3 61 62 113
3 62 63 114
3 63 64 115
3 64 65 116
3 65 66 117
3 66 67 118
3 67 68 119
3 68 69 120
3 69 70 121
3 70 71 122
3 71 72 123
3 72 73 124
3 73 74 125
3 74 75 126
3 75 76 127
3 76 77 128
3 77 78 129
3 78 79 130
3 79 80 131
3 80 81 132
3 81 82 133
3 82 83 134
3 83 84 135
3 84 85 136
3 85 86 137
3 86 87 138
3 87 88 139
3 88 89 140
3 89 90 141
3 90 91 142
3 91 92 143
3 92 93 144
3 93 94 145
3 94 95 146
3 95 96 147
3 96 97 148
3 97 98 149
3 98 99 150
3 99 100 151
3 100 101 152
3 102 103 154
3 103 104 155
3 104 105 156
3 105 106 157
3 106 107 158
3 107 108 159
3 108 109 160
3 109 110 161
3 110 111 162
3 111 112 163
3 112 113 164
3 113 114 165
3 114 115 166
3 115 116 167
3 116 117 168
3 117 118 169
3 118 119 170
3 119 120 171
3 120 121 172
3 121 122 173
3 122 123 174
3 123 124 175
3 124 125 176
3 125 126 177
3 126 127 178
3 127 128 179
3 128 129 180
3 129 130 181
3 130 131 182
3 131 132 183
3 132 133 184
3 133 134 185
3 134 135 186
3 135 136 187
3 136 137 188
3 137 138 189
3 138 139 190
3 139 140 191
3 140 141 192
3 141 142 193
3 142 143 194
3 143 144 195
3 144 145 196
3 145 146 197
3 146 147 198
3 147 148 199
3 148 149 200
3 149 150 201
3 150 151 202
3 151 152 203
3 153 154 205
3 154 155 206
3 155 156 207
3 156 157 208
3 157 158 209
3 158 159 210
3 159 160 211
3 160 161 212
3 161 162 213
3 162 163 214
3 163 164 215
3 164 165 216
3 165 166 217
3 166 167 218
3 167 168 219
3 168 169 220
3 169 170 221
3 170 171 222
3 171 172 223
3 172 173 224
3 173 174 225
3 174 175 226
3 175 176 227
3 176 177 228
3 177 178 229
3 178 179 230
3 179 180 231
3 180 181 232
3 181 182 233
3 182 183 234
3 183 184 235
3 184 185 236
3 185 186 237
3 186 187 238
3 187 188 239
3 188 189 240
3 189 190 241
3 190 191 242
3 191 192 243
3 192 193 244
3 193 194 245
3 194 195 246
3 195 196 247
3 196 197 248
3 197 198 249
3 198 199 250
3 199 200 251
3 200 201 252
3 201 202 253
3 202 203 254
3 0 52 51
3 1 53 52
3 2 54 53
3 3 55 54
3 4 56 55
3 5 57 56
3 6 58 57
3 7 59 58
3 8 60 59
3 9 61 60
3 10 62 61
3 11 63 62
3 12 64 63
3 13 65 64
3 14 66 65
3 15 67 66
3 16 68 67
3 17 69 68
3 18 70 69
3 19 71 70
3 20 72 71
3 21 73 72
3 22 74 73
3 23 75 74
3 24 76 75
3 25 77 76
3 26 78 77
3 27 79 78
3 28 80 79
3 29 81 80
3 30 82 81
3 31 83 82
3 32 84 83
3 33 85 84
3 34 86 85
3 35 87 86
3 36 88 87
3 37 89 88
3 38 90 89
3 39 91 90
3 40 92 91
3 41 93 92
3 42 94 93
3 43 95 94
3 44 96 95
3 45 97 96
3 46 98 97
3 47 99 98
3 48 100 99
3 49 101 100
3 51 103 102
3 52 104 103
3 53 105 104
3 54 106 105
3 55 107 106
3 56 108 107
3 57 109 108
3 58 110 109
3 59 111 110
3 60 112 111
3 61 113 112
3 62 114 113
3 63 115 114
3 64 116 115
3 65 117 116
3 66 118 117
3 67 119 118
3 68 120 119
3 69 121 120
3 70 122 121
3 71 123 122
3 72 124 123
3 73 125 124
3 74 126 125
3 75 127 126
3 76 128 127
3 77 129 128
3 78 130 129
3 79 131 130
3 80 132 131
3 81 133 132
3 82 134 133
3 83 135 134
3 84 136 135
3 85 137 136
3 86 138 137
3 87 139 138
3 88 140 139
3 89 141 140
3 90 142 141
3 91 143 142
3 92 144 143
3 93 145 144
3 94 146 145
3 95 147 146
3 96 148 147
3 97 149 148
3 98 150 149
3 99 151 150
3 100 152 151
3 102 154 153
3 103 155 154
3 104 156 155
3 105 157 156
3 106 158 157
3 107 159 158
3 108 160 159
3 109 161 160
3 110 162 161
3 111 163 162
3 112 164 163
3 113 165 164
3 114 166 165
3 115 167 166
3 116 168 167
3 117 169 168
3 118 170 169
3 119 171 170
3 120 172 171
3 121 173 172
3 122 174 173
3 123 175 174
3 124 176 175
3 125 177 176
3 126 178 177
3 127 179 178
3 128 180 179
3 129 181 180
3 130 182 181
3 131 183 182
3 132 184 183
3 133 185 184
3 134 186 185
3 135 187 186
3 136 188 187
3 137 189 188
3 138 190 189
3 139 191 190
3 140 192 191
3 141 193 192
3 142 194 193
3 143 195 194
3 144 196 195
3 145 197 196
3 146 198 197
3 147 199 198
3 148 200 199
3 149 201 200
3 150 202 201
3 151 203 202
3 153 205 204
3 154 206 205
3 155 207 206
3 156 208 207
3 157 209 208
3 158 210 209
3 159 211 210
3 160 212 211
3 161 213 212
3 162 214 213
3 163 215 214
3 164 216 215
3 165 217 216
3 166 218 217
3 167 219 218
3 168 220 219
3 169 221 220
3 170 222 221
3 171 223 222
3 172 224 223
3 173 225 224
3 174 226 225
3 175 227 226
3 176 228 227
3 177 229 228
3 178 230 229
3 179 231 230
3 180 232 231
3 181 233 232
3 182 234 233
3 183 235 234
3 184 236 235
3 185 237 236
3 186 238 237
3 187 239 238
3 188 240 239
3 189 241 240
3 190 242 241
3 191 243 242
3 192 244 243
3 193 245 244
3 194 246 245
3 195 247 246
3 196 248 247
3 197 249 248
3 198 250 249
3 199 251 250
3 200 252 251
3 201 253 252
3 202 254 253

CELL_TYPES 400
5 5 5 5 5 5 5 5 5 5 5 5 5 5 5 5 5 5 5 5 5 5 5 5 5 5 5 5 5 5 5 5 5 5 5 5 5 5 5 5 5 5 5 5 5 5 5 5 5 5 5 5 5 5 5 5 5 5 5 5 5 5 5 5 5 5 5 5 5 5 5 5 5 5 5 5 5 5 5 5 5 5 5 5 5 5 5 5 5 5 5 5 5 5 5 5 5 5 5 5 5 5 5 5 5 5 5 5 5 5 5 5 5 5 5 5 5 5 5 5 5 5 5 5 5 5 5 5 5 5 5 5 5 5 5 5 5 5 5 5 5 5 5 5 5 5 5 5 5 5 5 5 5 5 5 5 5 5 5 5 5 5 5 5 5 5 5 5 5 5 5 5 5 5 5 5 5 5 5 5 5 5 5 5 5 5 5 5 5 5 5 5 5 5 5 5 5 5 5 5 5 5 5 5 5 5 5 5 5 5 5 5 5 5 5 5 5 5 5 5 5 5 5 5 5 5 5 5 5 5 5 5 5 5 5 5 5 5 5 5 5 5 5 5 5 5 5 5 5 5 5 5 5 5 5 5 5 5 5 5 5 5 5 5 5 5 5 5 5 5 5 5 5 5 5 5 5 5 5 5 5 5 5 5 5 5 5 5 5 5 5 5 5 5 5 5 5 5 5 5 5 5 5 5 5 5 5 5 5 5 5 5 5 5 5 5 5 5 5 5 5 5 5 5 5 5 5 5 5 5 5 5 5 5 5 5 5 5 5 5 5 5 5 5 5 5 5 5 5 5 5 5 5 5 5 5 5 5 5 5 5 5 5 5 5 5 5 5 5 5 5 5 5 5 5 5 5 5 5 5 5 5 5 5 5 5 5 5 5 5 5 5 5 5 5 5 5 5 5 5 

POINT_DATA 255
SCALARS Temperature_numeric double
LOOKUP_TABLE default
4.04260536278e-14
4.04099710567e-14
3.98038172288e-14
3.84366226093e-14
3.62825615346e-14
3.33866899997e-14
2.98799566468e-14
2.59673123868e-14
2.18948360403e-14
1.79079259167e-14
1.42135534022e-14
1.0956073956e-14
8.21000654386e-15
5.98733409068e-15
4.25347994332e-15
2.94539809764e-15
1.98845715854e-15
1.30923281967e-15
8.41709442237e-16
5.2948360669e-16
3.26506180553e-16
1.96121337859e-16
1.13288340021e-16
6.3234677397e-17
3.43895282736e-17
1.82146974764e-17
9.40238065522e-18
4.73449290937e-18
2.32752884313e-18
1.11637981007e-18
5.21767533677e-19
2.37416554439e-19
1.05034927615e-19
4.50765224091e-20
1.8725734499e-20
7.52257059576e-21
2.92075279915e-21
1.09071420565e-21
3.87355981601e-22
1.29105732271e-22
3.94778943049e-23
1.04874853907e-23
2.03961633738e-24
-7.3600896275e-27
-3.01446601213e-25
-2.21419126812e-25
-1.19037040047e-25
-5.40225292511e-26
-1.993162791e-26
-1.175286644e-26
-8.34125146876e-27
3.99789366787e-14
3.97931455251e-14
3.93328875058e-14
3.83155980783e-14
3.66207891001e-14
3.42184825139e-14
3.11835627824e-14
2.76800902967e-14
2.39260621325e-14
2.01497543193e-14
1.65508790395e-14
1.32760679533e-14
1.04114860552e-14
7.98910525097e-15
6.00032174354e-15
4.40931263306e-15
3.16933782679e-15
2.23109533514e-15
1.54032299665e-15
1.04224780743e-15
6.87779964564e-16
4.34300208274e-16
2.63168976818e-16
1.59289770084e-16
9.40665952568e-17
5.44229479073e-17
3.08520094766e-17
1.71520690355e-17
9.33633501589e-18
4.96977654723e-18
2.58809601916e-18
1.31872318193e-18
6.57330804029e-19
3.20756991889e-19
1.53365571694e-19
7.18495830483e-20
3.2938255227e-20
1.47510531706e-20
6.46380617312e-21
2.77353749348e-21
1.165056144e-21
4.79172478286e-22
1.92931140479e-22
7.59937444981e-23
2.92926916375e-23
1.10539059621e-23
4.08098970528e-24
1.47224241219e-24
5.13381358848e-25
1.58547068348e-25
7.31468473399e-26
2.94029232999e-14
2.88909521066e-14
2.75861449783e-14
2.54669536629e-14
2.26779234169e-14
1.94917503606e-14
1.6243243712e-14
1.32408726628e-14
1.069313611e-14
8.67455891465e-15
7.13900814972e-15
5.96776993993e-15
5.02773310827e-15
4.21533943955e-15
3.47636945991e-15
2.79100421005e-15
2.19954691997e-15
1.71959628531e-15
1.30831320251e-15
9.50958553524e-16
6.5218610578e-16
4.20163071721e-16
2.30032739769e-16
1.47422557463e-16
9.51863990057e-17
5.97657875871e-17
3.6884393217e-17
2.20176016844e-17
1.26580196229e-17
7.13242606161e-18
3.94133523388e-18
2.13451821593e-18
1.1344365913e-18
5.93128374512e-19
3.02090745421e-19
1.49942208217e-19
7.22117022943e-20
3.43494879187e-20
1.60909027956e-20
7.38498962829e-21
3.32288145596e-21
1.4662743791e-21
6.33938264227e-22
2.69566576479e-22
1.12797261781e-22
4.6385114213e-23
1.87228258158e-23
7.45313982687e-24
2.91403510671e-24
1.15800101829e-24
6.38416867056e-25
1.19007567887e-14
9.12527376324e-15
4.35844808809e-15
-1.58943324551e-15
-7.97571886724e-15
-1.37543502104e-14
-1.7965025733e-14
-2.00176415787e-14
-1.98363301119e-14
-1.78288753056e-14
-1.47075023916e-14
-1.12430641293e-14
-8.05125638549e-15
-5.48026439552e-15
-3.61447289437e-15
-2.3559779825e-15
-1.53744147879e-15
-8.1754545617e-16
-3.8672990837e-16
-2.01900048839e-16
-2.04332309194e-16
-1.67723046897e-16
-1.06828474961e-16
-5.49597162959e-17
-2.35165216214e-17
-1.10317149986e-17
-3.44055897376e-18
-8.2999282927e-19
-1.28182999371e-18
-1.10816168905e-18
-6.40693932063e-19
-2.96573279634e-19
-1.20425313331e-19
-1.49601047401e-20
6.17684528033e-21
4.9506343455e-21
-3.22340974568e-21
-2.96008251432e-21
-9.02911432771e-22
-1.48764582716e-22
-5.24708496303e-25
1.92413590864e-23
3.89336273752e-24
2.00009116248e-25
1.06958066024e-24
1.15500153983e-24
3.48043046267e-25
1.99949491859e-25
4.96086650006e-26
9.39517171005e-27
3.22956700384e-26
1.07555725641e-14
9.03020852437e-15
4.25534034689e-15
-1.71260744729e-15
-8.12197360515e-15
-1.39203440414e-14
-1.81422373601e-14
-2.01943912451e-14
-2.00006341992e-14
-1.79712755671e-14
-1.48229300182e-14
-1.13311972971e-14
-8.11548598108e-15
-5.52580676228e-15
-3.64690245997e-15
-2.37840095819e-15
-1.55865082681e-15
-9.51935812722e-16
-5.15283881023e-16
-2.87647634306e-16
-2.10156260856e-16
-1.71464050724e-16
-1.08500045892e-16
-5.43471304028e-17
-2.40424101157e-17
-1.13556953724e-17
-5.20276455102e-18
-2.03235059919e-18
-1.36341885434e-18
-1.15129864227e-18
-6.61019598249e-19
-3.05385670784e-19
-1.2528757777e-19
-4.1291153452e-20
-8.6240032226e-21
-3.85311617943e-21
-3.64683540522e-21
-3.11757636894e-21
-1.0337504164e-21
-1.5619513881e-22
-3.80007458591e-24
7.94051775912e-24
3.202893544e-24
-2.06634704011e-26
1.06667635159e-24
1.19845880319e-24
5.99631956903e-25
2.13926560247e-25
1.15637425046e-25
3.82030309013e-26
3.82102133407e-26

SCALARS Temperature_analytic double
LOOKUP_TABLE default
4.04146104067e-14
4.04146104067e-14
3.98068349407e-14
3.84363064599e-14
3.62774587303e-14
3.33758836634e-14
2.98632778755e-14
2.59454013206e-14
2.18690213129e-14
1.78799585628e-14
1.41852784004e-14
1.09291322469e-14
8.18563453101e-15
5.96628412833e-15
4.23604556094e-15
2.93150515642e-15
1.97777822175e-15
1.30129648521e-15
8.35993302936e-16
5.25485218844e-16
3.23788467488e-16
1.94334165474e-16
1.12157560024e-16
6.25437739698e-17
3.39801034749e-17
1.79791676027e-17
9.27072103474e-18
4.66288206318e-18
2.28959210123e-18
1.09680986544e-18
5.11943071885e-19
2.3261870159e-19
1.02757873686e-19
4.40280117087e-20
1.82577684891e-20
7.3200692422e-21
2.83574663822e-21
1.05620191373e-21
3.73890645006e-22
1.2408213557e-22
3.76985224791e-23
9.89771136536e-24
1.86121286644e-24
-5.37553679518e-26
-3.09789249961e-25
-2.2083303186e-25
-1.17409530258e-25
-5.29606135757e-26
-1.94476761685e-26
-1.13473758066e-26
-8.03851105644e-27
3.99950117592e-14
3.98109320292e-14
3.93526430321e-14
3.8339332114e-14
3.66485817171e-14
3.4249574211e-14
3.12164621749e-14
2.77129113358e-14
2.39569256304e-14
2.01771406991e-14
1.6573844224e-14
1.32942920693e-14
1.04251819671e-14
7.99884910918e-15
6.00686786536e-15
4.41345540949e-15
3.17175492012e-15
2.23229378515e-15
1.54072927006e-15
1.04222608031e-15
6.87613804185e-16
4.34220276305e-16
2.63108527472e-16
1.59137128988e-16
9.39452804426e-17
5.43297349824e-17
3.07854049855e-17
1.71067241301e-17
9.30723775857e-18
4.95195644514e-18
2.57752913422e-18
1.31265816624e-18
6.53960887739e-19
3.18931777616e-19
1.52399305986e-19
7.13513104983e-20
3.26893585176e-20
1.46308323868e-20
6.40692025122e-21
2.74721304732e-21
1.15318329998e-21
4.73940775011e-22
1.90679749223e-22
7.50492599975e-23
2.89053404299e-23
1.08985354143e-23
4.02013201919e-24
1.44899510465e-24
5.04938318292e-25
1.56119669572e-25
7.09806981812e-26
2.94375229964e-14
2.89328944675e-14
2.76388719447e-14
2.5529855312e-14
2.2748040496e-14
1.95645675035e-14
1.63137307686e-14
1.33046713171e-14
1.07474231638e-14
8.71835452636e-15
7.17292261072e-15
5.99339310143e-15
5.04695656943e-15
4.22985858673e-15
3.4874257392e-15
2.79953522868e-15
2.20557791547e-15
1.72337839784e-15
1.31095641806e-15
9.53097758712e-16
6.54016622186e-16
4.21648565942e-16
2.28720976893e-16
1.47691222871e-16
9.5270412191e-17
5.98106016907e-17
3.68956214569e-17
2.20232390628e-17
1.26623183559e-17
7.13231513599e-18
3.93981459463e-18
2.13293408011e-18
1.13311010463e-18
5.92104917482e-19
3.01488882153e-19
1.49606139019e-19
7.20461775098e-20
3.42497845791e-20
1.60352258764e-20
7.35669512779e-21
3.30878906187e-21
1.45943208964e-21
6.30753470483e-22
2.68085390499e-22
1.12123157637e-22
4.60873662242e-23
1.85949852517e-23
7.39834774265e-24
2.89140704513e-24
1.14708000796e-24
6.25370171959e-25
1.19468410709e-14
9.07638024471e-15
4.29981841625e-15
-1.67139098631e-15
-8.0843353008e-15
-1.38851776482e-14
-1.81075376979e-14
-2.01582504651e-14
-1.9962233338e-14
-1.79313787564e-14
-1.478364499e-14
-1.12951510599e-14
-8.08485111975e-15
-5.5016414026e-15
-3.62904183354e-15
-2.36583514313e-15
-1.5500650218e-15
-8.20231493922e-16
-3.88374066779e-16
-2.02022397273e-16
-2.08551202801e-16
-1.70172241802e-16
-1.07576050364e-16
-5.50262403426e-17
-2.3608143579e-17
-1.12009650905e-17
-3.4637186635e-18
-8.36528135161e-19
-1.3414696298e-18
-1.13405590385e-18
-6.50393070403e-19
-2.99823961603e-19
-1.22658815766e-19
-1.45241867466e-20
5.8775087903e-21
4.88253584413e-21
-3.55391688036e-21
-3.03527552689e-21
-8.9898099629e-22
-1.48728104641e-22
-1.88313979223e-24
1.90677479775e-23
3.32532077287e-24
9.18511445203e-26
1.09577985826e-24
1.18979605471e-24
3.4119718971e-25
2.09413833753e-25
4.98951803679e-26
9.40153232682e-27
3.72293230697e-26
1.08019726367e-14
9.07638024471e-15
4.29981841625e-15
-1.67139098631e-15
-8.0843353008e-15
-1.38851776482e-14
-1.81075376979e-14
-2.01582504651e-14
-1.9962233338e-14
-1.79313787564e-14
-1.478364499e-14
-1.12951510599e-14
-8.08485111975e-15
-5.5016414026e-15
-3.62904183354e-15
-2.36583514313e-15
-1.5500650218e-15
-9.46305275435e-16
-5.11786768024e-16
-2.85455047616e-16
-2.08551202801e-16
-1.70172241802e-16
-1.07576050364e-16
-5.37962294804e-17
-2.37583055571e-17
-1.12009650905e-17
-5.1218934774e-18
-1.99725442927e-18
-1.3414696298e-18
-1.13405590385e-18
-6.50393070403e-19
-2.99823961603e-19
-1.22658815766e-19
-4.03115765562e-20
-8.3866570971e-21
-3.75073383534e-21
-3.55391688036e-21
-3.03527552689e-21
-1.00166949307e-21
-1.48728104641e-22
-1.88313979223e-24
8.36854383702e-24
3.32532077287e-24
9.18511445203e-26
1.09577985826e-24
1.18979605471e-24
5.89859389992e-25
2.09413833753e-25
1.13296148293e-25
3.72946388444e-26
3.72293230697e-26

SCALARS Vx_analytic double
LOOKUP_TABLE default
4.04307123437e-14
4.04146104067e-14
3.98068349407e-14
3.84363064599e-14
3.62774587303e-14
3.33758836634e-14
2.98632778755e-14
2.59454013206e-14
2.18690213129e-14
1.78799585628e-14
1.41852784004e-14
1.09291322469e-14
8.18563453101e-15
5.96628412833e-15
4.23604556094e-15
2.93150515642e-15
1.97777822175e-15
1.30129648521e-15
8.35993302936e-16
5.25485218844e-16
3.23788467488e-16
1.94334165474e-16
1.12157560024e-16
6.25437739698e-17
3.39801034749e-17
1.79791676027e-17
9.27072103474e-18
4.66288206318e-18
2.28959210123e-18
1.09680986544e-18
5.11943071885e-19
2.3261870159e-19
1.02757873686e-19
4.40280117087e-20
1.82577684891e-20
7.3200692422e-21
2.83574663822e-21
1.05620191373e-21
3.73890645006e-22
1.2408213557e-22
3.76985224791e-23
9.89771136536e-24
1.86121286644e-24
-5.37553679518e-26
-3.09789249961e-25
-2.2083303186e-25
-1.17409530258e-25
-5.29606135757e-26
-1.94476761685e-26
-1.13473758066e-26
-8.03851105644e-27
3.99950117592e-14
3.98109320292e-14
3.93526430321e-14
3.8339332114e-14
3.66485817171e-14
3.4249574211e-14
3.12164621749e-14
2.77129113358e-14
2.39569256304e-14
2.01771406991e-14
1.6573844224e-14
1.32942920693e-14
1.04251819671e-14
7.99884910918e-15
6.00686786536e-15
4.41345540949e-15
3.17175492012e-15
2.23229378515e-15
1.54072927006e-15
1.04222608031e-15
6.87613804185e-16
4.34220276305e-16
2.63108527472e-16
1.59137128988e-16
9.39452804426e-17
5.43297349824e-17
3.07854049855e-17
1.71067241301e-17
9.30723775857e-18
4.95195644514e-18
2.57752913422e-18
1.31265816624e-18
6.53960887739e-19
3.18931777616e-19
1.52399305986e-19
7.13513104983e-20
3.26893585176e-20
1.46308323868e-20
6.40692025122e-21
2.74721304732e-21
1.15318329998e-21
4.73940775011e-22
1.90679749223e-22
7.50492599975e-23
2.89053404299e-23
1.08985354143e-23
4.02013201919e-24
1.44899510465e-24
5.04938318292e-25
1.56119669572e-25
7.09806981812e-26
2.94375229964e-14
2.89328944675e-14
2.76388719447e-14
2.5529855312e-14
2.2748040496e-14
1.95645675035e-14
1.63137307686e-14
1.33046713171e-14
1.07474231638e-14
8.71835452636e-15
7.17292261072e-15
5.99339310143e-15
5.04695656943e-15
4.22985858673e-15
3.4874257392e-15
2.79953522868e-15
2.20557791547e-15
1.72337839784e-15
1.31095641806e-15
9.53097758712e-16
6.54016622186e-16
4.21648565942e-16
2.28720976893e-16
1.47691222871e-16
9.5270412191e-17
5.98106016907e-17
3.68956214569e-17
2.20232390628e-17
1.26623183559e-17
7.13231513599e-18
3.93981459463e-18
2.13293408011e-18
1.13311010463e-18
5.92104917482e-19
3.01488882153e-19
1.49606139019e-19
7.20461775098e-20
3.42497845791e-20
1.60352258764e-20
7.35669512779e-21
3.30878906187e-21
1.45943208964e-21
6.30753470483e-22
2.68085390499e-22
1.12123157637e-22
4.60873662242e-23
1.85949852517e-23
7.39834774265e-24
2.89140704513e-24
1.14708000796e-24
6.25370171959e-25
1.19468410709e-14
9.20261792413e-15
4.45651983543e-15
-1.48130873644e-15
-7.8662238332e-15
-1.36541684641e-14
-1.78829788014e-14
-1.99584742437e-14
-1.98000746925e-14
-1.78116906094e-14
-1.47034581815e-14
-1.12460930503e-14
-8.05659363698e-15
-5.48505350061e-15
-3.61761179546e-15
-2.35756953662e-15
-1.53807276397e-15
-8.20231493922e-16
-3.88374066779e-16
-2.02022397273e-16
-2.02719708688e-16
-1.66858070574e-16
-1.06598430096e-16
-5.50262403426e-17
-2.3608143579e-17
-1.10200125505e-17
-3.4637186635e-18
-8.36528135161e-19
-1.25571467008e-18
-1.09336028031e-18
-6.35544790258e-19
-2.94971801398e-19
-1.19837364851e-19
-1.45241867466e-20
5.8775087903e-21
4.88253584413e-21
-3.04955917571e-21
-2.88454150384e-21
-8.9898099629e-22
-1.49897214451e-22
-3.61321075879e-25
1.90677479775e-23
4.15924074956e-24
3.42364781133e-25
1.08682763507e-24
1.14565160033e-24
3.4119718971e-25
1.97238255428e-25
4.98951803679e-26
9.40153232682e-27
3.12086040388e-26
1.08019726367e-14
9.07638024471e-15
4.29981841625e-15
-1.67139098631e-15
-8.0843353008e-15
-1.38851776482e-14
-1.81075376979e-14
-2.01582504651e-14
-1.9962233338e-14
-1.79313787564e-14
-1.478364499e-14
-1.12951510599e-14
-8.08485111975e-15
-5.5016414026e-15
-3.62904183354e-15
-2.36583514313e-15
-1.5500650218e-15
-9.46305275435e-16
-5.11786768024e-16
-2.85455047616e-16
-2.08551202801e-16
-1.70172241802e-16
-1.07576050364e-16
-5.37962294804e-17
-2.37583055571e-17
-1.12009650905e-17
-5.1218934774e-18
-1.99725442927e-18
-1.3414696298e-18
-1.13405590385e-18
-6.50393070403e-19
-2.99823961603e-19
-1.22658815766e-19
-4.03115765562e-20
-8.3866570971e-21
-3.75073383534e-21
-3.55391688036e-21
-3.03527552689e-21
-1.00166949307e-21
-1.48728104641e-22
-1.88313979223e-24
8.36854383702e-24
3.32532077287e-24
9.18511445203e-26
1.09577985826e-24
1.18979605471e-24
5.89859389992e-25
2.09413833753e-25
1.13296148293e-25
3.72946388444e-26
3.72293230697e-26

VECTORS Velocity double
0.0 0.0 0.0
0.0 0.0 0.0
0.0 0.0 0.0
0.0 0.0 0.0
0.0 0.0 0.0
0.0 0.0 0.0
0.0 0.0 0.0
0.0 0.0 0.0
0.0 0.0 0.0
0.0 0.0 0.0
0.0 0.0 0.0
0.0 0.0 0.0
0.0 0.0 0.0
0.0 0.0 0.0
0.0 0.0 0.0
0.0 0.0 0.0
0.0 0.0 0.0
0.0 0.0 0.0
0.0 0.0 0.0
0.0 0.0 0.0
0.0 0.0 0.0
0.0 0.0 0.0
0.0 0.0 0.0
0.0 0.0 0.0
0.0 0.0 0.0
0.0 0.0 0.0
0.0 0.0 0.0
0.0 0.0 0.0
0.0 0.0 0.0
0.0 0.0 0.0
0.0 0.0 0.0
0.0 0.0 0.0
0.0 0.0 0.0
0.0 0.0 0.0
0.0 0.0 0.0
0.0 0.0 0.0
0.0 0.0 0.0
0.0 0.0 0.0
0.0 0.0 0.0
0.0 0.0 0.0
0.0 0.0 0.0
0.0 0.0 0.0
0.0 0.0 0.0
0.0 0.0 0.0
0.0 0.0 0.0
0.0 0.0 0.0
0.0 0.0 0.0
0.0 0.0 0.0
0.0 0.0 0.0
0.0 0.0 0.0
0.0 0.0 0.0
1.125 0.0 0.0
1.125 0.0 0.0
1.125 0.0 0.0
1.125 0.0 0.0
1.125 0.0 0.0
1.125 0.0 0.0
1.125 0.0 0.0
1.125 0.0 0.0
1.125 0.0 0.0
1.125 0.0 0.0
1.125 0.0 0.0
1.125 0.0 0.0
1.125 0.0 0.0
1.125 0.0 0.0
1.125 0.0 0.0
1.125 0.0 0.0
1.125 0.0 0.0
1.125 0.0 0.0
1.125 0.0 0.0
1.125 0.0 0.0
1.125 0.0 0.0
1.125 0.0 0.0
1.125 0.0 0.0
1.125 0.0 0.0
1.125 0.0 0.0
1.125 0.0 0.0
1.125 0.0 0.0
1.125 0.0 0.0
1.125 0.0 0.0
1.125 0.0 0.0
1.125 0.0 0.0
1.125 0.0 0.0
1.125 0.0 0.0
1.125 0.0 0.0
1.125 0.0 0.0
1.125 0.0 0.0
1.125 0.0 0.0
1.125 0.0 0.0
1.125 0.0 0.0
1.125 0.0 0.0
1.125 0.0 0.0
1.125 0.0 0.0
1.125 0.0 0.0
1.125 0.0 0.0
1.125 0.0 0.0
1.125 0.0 0.0
1.125 0.0 0.0
1.125 0.0 0.0
1.125 0.0 0.0
1.125 0.0 0.0
1.125 0.0 0.0
1.5 0.0 0.0
1.5 0.0 0.0
1.5 0.0 0.0
1.5 0.0 0.0
1.5 0.0 0.0
1.5 0.0 0.0
1.5 0.0 0.0
1.5 0.0 0.0
1.5 0.0 0.0
1.5 0.0 0.0
1.5 0.0 0.0
1.5 0.0 0.0
1.5 0.0 0.0
1.5 0.0 0.0
1.5 0.0 0.0
1.5 0.0 0.0
1.5 0.0 0.0
1.5 0.0 0.0
1.5 0.0 0.0
1.5 0.0 0.0
1.5 0.0 0.0
1.5 0.0 0.0
1.5 0.0 0.0
1.5 0.0 0.0
1.5 0.0 0.0
1.5 0.0 0.0
1.5 0.0 0.0
1.5 0.0 0.0
1.5 0.0 0.0
1.5 0.0 0.0
1.5 0.0 0.0
1.5 0.0 0.0
1.5 0.0 0.0
1.5 0.0 0.0
1.5 0.0 0.0
1.5 0.0 0.0
1.5 0.0 0.0
1.5 0.0 0.0
1.5 0.0 0.0
1.5 0.0 0.0
1.5 0.0 0.0
1.5 0.0 0.0
1.5 0.0 0.0
1.5 0.0 0.0
1.5 0.0 0.0
1.5 0.0 0.0
1.5 0.0 0.0
1.5 0.0 0.0
1.5 0.0 0.0
1.5 0.0 0.0
1.5 0.0 0.0
1.125 0.0 0.0
1.125 0.0 0.0
1.125 0.0 0.0
1.125 0.0 0.0
1.125 0.0 0.0
1.125 0.0 0.0
1.125 0.0 0.0
1.125 0.0 0.0
1.125 0.0 0.0
1.125 0.0 0.0
1.125 0.0 0.0
1.125 0.0 0.0
1.125 0.0 0.0
1.125 0.0 0.0
1.125 0.0 0.0
1.125 0.0 0.0
1.125 0.0 0.0
1.125 0.0 0.0
1.125 0.0 0.0
1.125 0.0 0.0
1.125 0.0 0.0
1.125 0.0 0.0
1.125 0.0 0.0
1.125 0.0 0.0
1.125 0.0 0.0
1.125 0.0 0.0
1.125 0.0 0.0
1.125 0.0 0.0
1.125 0.0 0.0
1.125 0.0 0.0
1.125 0.0 0.0
1.125 0.0 0.0
1.125 0.0 0.0
1.125 0.0 0.0
1.125 0.0 0.0
1.125 0.0 0.0
1.125 0.0 0.0
1.125 0.0 0.0
1.125 0.0 0.0
1.125 0.0 0.0
1.125 0.0 0.0
1.125 0.0 0.0
1.125 0.0 0.0
1.125 0.0 0.0
1.125 0.0 0.0
1.125 0.0 0.0
1.125 0.0 0.0
1.125 0.0 0.0
1.125 0.0 0.0
1.125 0.0 0.0
1.125 0.0 0.0
0.0 0.0 0.0
0.0 0.0 0.0
0.0 0.0 0.0
0.0 0.0 0.0
0.0 0.0 0.0
0.0 0.0 0.0
0.0 0.0 0.0
0.0 0.0 0.0
0.0 0.0 0.0
0.0 0.0 0.0
0.0 0.0 0.0
0.0 0.0 0.0
0.0 0.0 0.0
0.0 0.0 0.0
0.0 0.0 0.0
0.0 0.0 0.0
0.0 0.0 0.0
0.0 0.0 0.0
0.0 0.0 0.0
0.0 0.0 0.0
0.0 0.0 0.0
0.0 0.0 0.0
0.0 0.0 0.0
0.0 0.0 0.0
0.0 0.0 0.0
0.0 0.0 0.0
0.0 0.0 0.0
0.0 0.0 0.0
0.0 0.0 0.0
0.0 0.0 0.0
0.0 0.0 0.0
0.0 0.0 0.0
0.0 0.0 0.0
0.0 0.0 0.0
0.0 0.0 0.0
0.0 0.0 0.0
0.0 0.0 0.0
0.0 0.0 0.0
0.0 0.0 0.0
0.0 0.0 0.0
0.0 0.0 0.0
0.0 0.0 0.0
0.0 0.0 0.0
0.0 0.0 0.0
0.0 0.0 0.0
0.0 0.0 0.0
0.0 0.0 0.0
0.0 0.0 0.0
0.0 0.0 0.0
0.0 0.0 0.0
0.0 0.0 0.0

